# t (s)	mx ()	my ()	mz ()
0	0.96845245	1.6535523e-08	-2.638995e-10
1.0102086293270965e-12	0.968434	5.95154e-05	-0.00073892775
2.008891790626765e-12	0.96838963	0.0002068204	-0.0014673766
3.0074462771602173e-12	0.96831965	0.00044162106	-0.0021934866
4.016630776357673e-12	0.9682232	0.00076730154	-0.0029248223
5.017196994046464e-12	0.968102	0.0011773321	-0.0036471998
6.0258039840958286e-12	0.96795416	0.0016778334	-0.004372421
7.024115545184294e-12	0.96778274	0.002258751	-0.0050870995
8.020370335355786e-12	0.9675865	0.002922604	-0.005796999
9.026090670325511e-12	0.967363	0.0036772708	-0.006510119
1.0004693298754199e-11	0.967121	0.0044923406	-0.0072004693
1.1011527857302561e-11	0.9668468	0.00541323	-0.007906957
1.2015913529415063e-11	0.9665477	0.0064141764	-0.008607788
1.3014924805409422e-11	0.966225	0.0074903895	-0.009300858
1.4007614778691357e-11	0.9658794	0.008638501	-0.009985477
1.5027503053234848e-11	0.9654989	0.009898776	-0.010684533
1.6027453906083754e-11	0.96510077	0.011212809	-0.011365576
1.7004243652520463e-11	0.96468806	0.012570367	-0.012026612
1.8004235867505423e-11	0.9642414	0.01403488	-0.012698953
1.9026055853213772e-11	0.9637598	0.01560835	-0.013381319
2.001961762766018e-11	0.9632672	0.017211858	-0.014040286
2.1018839407209022e-11	0.962748	0.01889657	-0.014698496
2.2014988824567708e-11	0.9622064	0.020646978	-0.015350199
2.3012182280470737e-11	0.96164083	0.02246901	-0.015998129
2.4013318318291628e-11	0.9610495	0.024367373	-0.016644176
2.5008974243483358e-11	0.96043825	0.026322914	-0.017282318
2.600042751870694e-11	0.9598073	0.028336044	-0.017913498
2.7019392733761537e-11	0.9591359	0.03047235	-0.018557828
2.8015122962207297e-11	0.95845795	0.032624755	-0.019183282
2.9012425629398083e-11	0.9577578	0.034843702	-0.019805681
3.000438745037299e-11	0.9570407	0.03711241	-0.020420855
3.1023780541494644e-11	0.9562831	0.039506834	-0.021049138
3.2016092107327113e-11	0.95552576	0.041897926	-0.02165709
3.300862426738584e-11	0.95474964	0.04434802	-0.022261757
3.400088531969309e-11	0.9539553	0.0468549	-0.022863034
3.5021168097413876e-11	0.95312005	0.049491435	-0.023478143
3.6015200035133014e-11	0.9522892	0.05211656	-0.02407459
3.70107039879438e-11	0.9514407	0.054800432	-0.024669355
3.800684973885118e-11	0.9505761	0.057540104	-0.025262201
3.900119526332962e-11	0.9496986	0.06032791	-0.025851957
4.0022922779592215e-11	0.9487826	0.06324692	-0.026456177
4.1017555641205384e-11	0.9478779	0.066140816	-0.027042972
4.2012850660077265e-11	0.9469607	0.0690876	-0.02762914
4.300872603334324e-11	0.94603187	0.072086565	-0.028215023
4.4004532272347345e-11	0.9450929	0.075135306	-0.02880065
4.502622065399991e-11	0.9441199	0.07831476	-0.02940175
4.601915459702517e-11	0.94316566	0.08145434	-0.029986652
4.701170953210331e-11	0.9422041	0.08464131	-0.030572526
4.800397406753374e-11	0.9412361	0.087875694	-0.031159936
4.9023715189609333e-11	0.940235	0.09124983	-0.03176594
5.001601657523792e-11	0.9392557	0.09458197	-0.032358475
5.100872805605825e-11	0.9382715	0.09796366	-0.03295462
5.2001459882008797e-11	0.9372835	0.1013937	-0.033554755
5.3022240770446507e-11	0.9362644	0.104971156	-0.03417666
5.401625107012388e-11	0.93526924	0.108504266	-0.03478762
5.5010819971177584e-11	0.9342712	0.11208858	-0.035404928
5.600577017559142e-11	0.93327105	0.11572392	-0.036029197
5.700089292064078e-11	0.9322689	0.119410105	-0.03666106
5.802323153074194e-11	0.93123794	0.12324999	-0.03731879
5.901800992587399e-11	0.9302332	0.12703857	-0.037967972
6.001314844995715e-11	0.9292266	0.13088082	-0.038627245
6.100855278533773e-11	0.928218	0.13477732	-0.0392974
6.200416385601222e-11	0.92720735	0.13872892	-0.039979238
6.302734513809848e-11	0.9261663	0.14284766	-0.04069289
6.402267413036228e-11	0.92515063	0.14691171	-0.041400578
6.501836149298856e-11	0.9241311	0.15103522	-0.042122707
6.60143610675466e-11	0.9231071	0.1552195	-0.04286013
6.700895048170396e-11	0.9220791	0.15945882	-0.043612473
6.800231789497e-11	0.9210459	0.16375539	-0.0443807
6.902327083144227e-11	0.9199759	0.16823816	-0.045188714
7.001695214958158e-11	0.918925	0.17266825	-0.045994043
7.1010898975516e-11	0.917863	0.17716762	-0.046819143
7.200499266913448e-11	0.91678804	0.18173788	-0.04766482
7.302677578904132e-11	0.91566765	0.18651089	-0.048556324
7.402076135825015e-11	0.9145607	0.19122979	-0.04944612
7.501450041113815e-11	0.91343486	0.19602457	-0.05035878
7.600771479804158e-11	0.9122877	0.20089626	-0.051294867
7.70002440132358e-11	0.9111171	0.20584655	-0.052254997
7.801970637790702e-11	0.90988624	0.2110192	-0.053267706
7.901132076966417e-11	0.9086582	0.21613896	-0.05427933
8.000290684670296e-11	0.90739655	0.22134852	-0.05531789
8.102242417419083e-11	0.9060606	0.2268016	-0.056414567
8.201431976619879e-11	0.9047192	0.23220398	-0.057510313
8.30055267123802e-11	0.903334	0.23770113	-0.0586343
8.402436030175813e-11	0.9018593	0.24345717	-0.05982045
8.501582658244389e-11	0.9003704	0.24916442	-0.06100531
8.600742233106365e-11	0.89882344	0.2549797	-0.06222095
8.7026720466305e-11	0.8971685	0.2610724	-0.06350291
8.801852737373843e-11	0.8954898	0.26711556	-0.06478215
8.901054187158189e-11	0.8937385	0.27327615	-0.066093326
9.000266326635179e-11	0.89190924	0.27955648	-0.06743654
9.102262509381089e-11	0.88994205	0.28614002	-0.068850845
9.201534827939807e-11	0.8879371	0.2926742	-0.070259914
9.300810543700967e-11	0.88583714	0.29933596	-0.0717011
9.400122765367359e-11	0.88363534	0.30613005	-0.07317475
9.502195312811311e-11	0.8812607	0.31325084	-0.074722394
9.601531623206629e-11	0.8788341	0.32031733	-0.07626031
9.700872343265872e-11	0.8762872	0.32752085	-0.07782916
9.80021717629497e-11	0.87361324	0.33486336	-0.079428345
9.902314229652021e-11	0.87072563	0.3425557	-0.081102625
1.0001637988767283e-10	0.86777365	0.350183	-0.08276053
1.0100943396967692e-10	0.86467445	0.35795218	-0.084445864
1.020022426195076e-10	0.8614209	0.36586368	-0.08615744
1.0302236899211962e-10	0.85790896	0.3741439	-0.087942615
1.0401471201589334e-10	0.8543208	0.38234597	-0.089703634
1.0500679075118307e-10	0.8505569	0.39069128	-0.0914868
1.0602624191144579e-10	0.8464974	0.39941823	-0.09334107
1.0701816593603403e-10	0.84235346	0.40805623	-0.0951648
1.0801010400598426e-10	0.83801085	0.41683823	-0.09700596
1.0900205674528182e-10	0.8334624	0.42576292	-0.09886255
1.1002170170083881e-10	0.8285649	0.43508378	-0.10078476
1.1101389742779157e-10	0.8235762	0.44429475	-0.10266635
1.1200619086065703e-10	0.81835985	0.45364335	-0.10455671
1.1302633020848623e-10	0.81275374	0.46339396	-0.10650649
1.140189666635738e-10	0.807055	0.47301432	-0.108407296
1.1501167340870641e-10	0.8011094	0.48276252	-0.1103092
1.1600470020430946e-10	0.79490924	0.49263698	-0.11221002
1.170254866196966e-10	0.7882668	0.50291127	-0.114159465
1.1801892630560938e-10	0.781535	0.5130256	-0.11604965
1.190124741568669e-10	0.774534	0.5232495	-0.117930524
1.20006300861466e-10	0.76725787	0.5335789	-0.11980001
1.2100017992937196e-10	0.7597038	0.5440056	-0.12165535
1.22021805578469e-10	0.7516457	0.5548172	-0.1235455
1.2301596377920402e-10	0.743515	0.5654224	-0.12536643
1.2401013560368153e-10	0.7350955	0.5761035	-0.12716776
1.2500423643634708e-10	0.72638476	0.58685213	-0.12894818
1.2602566299474145e-10	0.71712726	0.5979585	-0.13075522
1.270190810121222e-10	0.70782197	0.6088124	-0.13249075
1.2801209138424267e-10	0.69821966	0.61970407	-0.13420434
1.2900465526219221e-10	0.6883181	0.6306234	-0.13589682
1.3002447205929523e-10	0.67782485	0.6418663	-0.13761613
1.3101669396083778e-10	0.66730034	0.6528172	-0.139272
1.3200877502254555e-10	0.6564621	0.6637676	-0.14091367
1.330008349291896e-10	0.6453038	0.67470694	-0.1425446
1.340204762983894e-10	0.6334953	0.6859262	-0.14421375
1.3501277104222412e-10	0.62166595	0.69680744	-0.14583564
1.3600488985516736e-10	0.60949814	0.7076361	-0.1474595
1.370247465425425e-10	0.59662616	0.71869886	-0.14913644
1.3801714602975394e-10	0.5837369	0.7293803	-0.150781
1.390095749127244e-10	0.5704777	0.7399626	-0.15244342
1.4000207505991822e-10	0.55683684	0.75042737	-0.15412878
1.4102229633807722e-10	0.5424055	0.7610402	-0.15588987
1.4201501337146712e-10	0.52795196	0.77120465	-0.15763547
1.430078038904782e-10	0.51307887	0.78118676	-0.15941599
1.4400073860902819e-10	0.49777243	0.79096276	-0.16123378
1.4502132906212245e-10	0.4815776	0.80076766	-0.16314182
1.4601458978470228e-10	0.46535513	0.81004494	-0.16503692
1.4700801515056477e-10	0.4486651	0.81903344	-0.16696814
1.4800153540656058e-10	0.43150085	0.8277027	-0.16893192
1.4902276379312966e-10	0.41335982	0.8362478	-0.17097902
1.5001669518326044e-10	0.3952166	0.84417653	-0.1729925
1.5101079552549477e-10	0.37659124	0.85169196	-0.17501913
1.5200507242404975e-10	0.3574885	0.8587634	-0.17704965
1.5302711712401459e-10	0.3373682	0.8655361	-0.17912972
1.5402173346289806e-10	0.3173308	0.87161475	-0.1811355
1.5501647763012246e-10	0.2968585	0.87716174	-0.18311162
1.560113743152471e-10	0.27597305	0.88215244	-0.18504618
1.5700637226711638e-10	0.25470224	0.88656497	-0.1869272
1.580014081015618e-10	0.2330777	0.8903806	-0.18874323
1.5902422430986588e-10	0.21051721	0.8936651	-0.19053082
1.6001940758363251e-10	0.1882803	0.8962294	-0.19218302
1.610147173481233e-10	0.16579773	0.8981645	-0.19374058
1.6201014901189966e-10	0.14310992	0.89946735	-0.19519581
1.6300563753110385e-10	0.12025972	0.9001391	-0.19654205
1.6400121697655755e-10	0.09728819	0.90018463	-0.19777413
1.6502447455453444e-10	0.07359762	0.89958787	-0.19891691
1.660202426020191e-10	0.050507367	0.8983933	-0.1999057
1.6701606436654344e-10	0.027420755	0.8966079	-0.20077081
1.6801200168825047e-10	0.0043751807	0.89424896	-0.20151109
1.6900802168501604e-10	-0.018591331	0.89133584	-0.20212603
1.700041767505696e-10	-0.041444458	0.88788927	-0.20261577
1.7100052630176302e-10	-0.06415186	0.8839312	-0.20298104
1.7202452596314022e-10	-0.08729958	0.87935567	-0.20322782
1.7301802073972196e-10	-0.10954353	0.8744489	-0.20334408
1.7400996405327351e-10	-0.1315146	0.8691145	-0.20334089
1.7500176726778557e-10	-0.15321912	0.8633699	-0.20322043
1.7602117034197884e-10	-0.17522828	0.8570617	-0.20297664
1.7701311542147265e-10	-0.19633096	0.8505542	-0.20262496
1.7800508551201473e-10	-0.21710457	0.84370506	-0.20216265
1.790246647236439e-10	-0.23809351	0.83633184	-0.20157485
1.8001652720070895e-10	-0.2581419	0.828856	-0.200896
1.8100740691295662e-10	-0.27779096	0.8211088	-0.20011503
1.8202558718120605e-10	-0.29757217	0.8128775	-0.19920823
1.830163077304968e-10	-0.31640962	0.8046229	-0.19822708
1.8400695792764817e-10	-0.33483082	0.79614353	-0.19715115
1.8502530128030812e-10	-0.35332525	0.78720903	-0.19594885
1.8601608496921162e-10	-0.37088203	0.77831894	-0.19468777
1.8700690745311167e-10	-0.38800243	0.76924825	-0.1933387
1.8802549590679609e-10	-0.40514264	0.7597493	-0.19186212
1.890165468170412e-10	-0.4213689	0.750351	-0.19033971
1.9000768484944424e-10	-0.43715093	0.7408107	-0.18873379
1.9102652908306547e-10	-0.45290965	0.7308694	-0.18699677
1.9201788217104963e-10	-0.46779266	0.7210785	-0.18522306
1.930093420110001e-10	-0.4822358	0.7111831	-0.18336658
1.9400087024813684e-10	-0.49624264	0.7011966	-0.18142681
1.9502007282149822e-10	-0.51019067	0.6908516	-0.17934528
1.9601178359429022e-10	-0.5233319	0.68072283	-0.17723346
1.9700358656306115e-10	-0.5360584	0.67054665	-0.17503482
1.980231811104516e-10	-0.5487185	0.66005397	-0.17268293
1.9901519221225332e-10	-0.5606362	0.6498323	-0.17030415
2.0000718154764507e-10	-0.5721726	0.63961625	-0.16783533
2.0102693309363135e-10	-0.58365	0.62913954	-0.16520293
2.020190943405559e-10	-0.5944616	0.61899036	-0.16254999
2.030114395233338e-10	-0.6049421	0.60890174	-0.15980686
2.0400386876468283e-10	-0.6151084	0.5988931	-0.15697545
2.0502399183708415e-10	-0.62524956	0.5887078	-0.15397593
2.0601655081958339e-10	-0.6348358	0.5789138	-0.15097421
2.07009285319782e-10	-0.6441651	0.56924653	-0.14789402
2.0800215089598228e-10	-0.65325487	0.55971795	-0.14474025
2.0902289105105965e-10	-0.6623659	0.5500774	-0.14142707
2.1001612834031387e-10	-0.67101836	0.5408544	-0.13813975
2.1100954704412453e-10	-0.6794737	0.53178936	-0.13479471
2.1200336661880382e-10	-0.6877419	0.5228824	-0.13139647
2.130248967894506e-10	-0.69604695	0.51389617	-0.12785469
2.140191795223078e-10	-0.70394254	0.5053137	-0.12436492
2.1501359550867865e-10	-0.7116505	0.49689186	-0.120837785
2.1600829399957963e-10	-0.7191647	0.48862985	-0.11727798
2.1700330139818372e-10	-0.7264751	0.48052943	-0.11369151
2.1802620678849233e-10	-0.73376167	0.472377	-0.109985605
2.19021723539658e-10	-0.74061555	0.46461904	-0.10637004
2.20017501735833e-10	-0.74722147	0.45704046	-0.102756456
2.2101317997296075e-10	-0.75356233	0.44965303	-0.09916045
2.2200899620067312e-10	-0.7596266	0.44246405	-0.09559816
2.2300270547428674e-10	-0.76539105	0.4354979	-0.0920971
2.2402307026015416e-10	-0.77100396	0.42856774	-0.08858073
2.250156435565498e-10	-0.77616227	0.42204684	-0.08526014
2.2600811253469348e-10	-0.7810217	0.41574344	-0.082062185
2.270006453235693e-10	-0.7855845	0.409651	-0.07900907
2.280206480848637e-10	-0.78996706	0.40359867	-0.07604451
2.2901300625579967e-10	-0.7939364	0.39789653	-0.07334691
2.300053153498059e-10	-0.79761684	0.39235646	-0.07084759
2.3102518846189198e-10	-0.80109894	0.38680384	-0.06849536
2.32017642764896e-10	-0.80419195	0.38150838	-0.06642212
2.33010154906192e-10	-0.8069872	0.37628788	-0.06456218
2.3400281212596044e-10	-0.80947596	0.3711107	-0.06291217
2.350231499070255e-10	-0.81170166	0.36580345	-0.061428595
2.360161650353083e-10	-0.81353086	0.36062342	-0.060182866
2.3700935601461365e-10	-0.81501484	0.35540298	-0.05912264
2.380028620748934e-10	-0.8161416	0.35012034	-0.05823793
2.3902441119357573e-10	-0.8169184	0.3446081	-0.05750165
2.400185840918196e-10	-0.817298	0.33915275	-0.05694528
2.4101296932682555e-10	-0.81730807	0.33359864	-0.05653983
2.4200572343219393e-10	-0.81695664	0.32795224	-0.056280427
2.430238719959562e-10	-0.8162371	0.32205546	-0.056161415
2.4401420448931093e-10	-0.81521016	0.31621888	-0.056186136
2.4500452321256447e-10	-0.8138896	0.3102872	-0.056348067
2.46022561923221e-10	-0.8122624	0.3040967	-0.056656744
2.470131551683229e-10	-0.8104572	0.29799062	-0.057094734
2.480038505910814e-10	-0.8084767	0.29181173	-0.057667434
2.4902233888653943e-10	-0.8063066	0.28539535	-0.058394648
2.500134142646995e-10	-0.80411243	0.27910134	-0.05923423
2.510047328697121e-10	-0.8018832	0.2727695	-0.060200445
2.5202382934367036e-10	-0.7996029	0.2662375	-0.061320778
2.5301555147051935e-10	-0.7974381	0.25987422	-0.06252937
2.5400753909029513e-10	-0.7953653	0.25351772	-0.0638496
2.5502729111371466e-10	-0.79336804	0.24700718	-0.065317124
2.5601967403911977e-10	-0.79158616	0.24070728	-0.06684742
2.570122450764512e-10	-0.7899916	0.23445107	-0.068474025
2.580050797442497e-10	-0.78860897	0.22824323	-0.07019277
2.590257722419907e-10	-0.7874322	0.22191334	-0.07205089
2.6001902605921216e-10	-0.7865454	0.21579814	-0.07394314
2.6101248769165173e-10	-0.7859309	0.20971312	-0.075913355
2.620062132448886e-10	-0.7856045	0.20363912	-0.07795507
2.6300002917516403e-10	-0.7855792	0.1975527	-0.080059476
2.640216640125838e-10	-0.78587717	0.19125268	-0.08227689
2.650157163036593e-10	-0.78648746	0.18504715	-0.08447416
2.660097901596426e-10	-0.7874137	0.17873208	-0.08669607
2.6700384916031407e-10	-0.7886491	0.17227295	-0.088926926
2.6802548869046253e-10	-0.7902268	0.16544953	-0.09121218
2.6901938504028537e-10	-0.79203975	0.15860026	-0.09341239
2.7001319508517856e-10	-0.79409873	0.15151672	-0.09557589
2.710070635384046e-10	-0.79637015	0.14417605	-0.09769182
2.7200091477283215e-10	-0.79881525	0.13656181	-0.09975214
2.730225230611351e-10	-0.8014661	0.12843692	-0.10180759
2.740167083462033e-10	-0.8041366	0.12023258	-0.103746615
2.750109839963015e-10	-0.80685556	0.11173091	-0.10562846
2.760053983840227e-10	-0.8095859	0.10293227	-0.10745931
2.7702753108423416e-10	-0.8123697	0.09358423	-0.109296724
2.7802214164901134e-10	-0.81502986	0.0841984	-0.11105185
2.7901684494696805e-10	-0.81762254	0.07453364	-0.112785816
2.800116701113918e-10	-0.8201356	0.06459704	-0.11450951
2.810064965609869e-10	-0.82256347	0.054395877	-0.116232395
2.8200136700280577e-10	-0.82490695	0.04393343	-0.11796192
2.8302350579862843e-10	-0.8272333	0.032913137	-0.11974997
2.840157799278034e-10	-0.82942325	0.021949168	-0.12149615
2.8500710457749507e-10	-0.8315564	0.010728609	-0.12324536
2.8602540900092735e-10	-0.8337041	-0.0010832069	-0.12503555
2.870161839222496e-10	-0.83576375	-0.01286187	-0.12675434
2.8800706578675167e-10	-0.8378024	-0.024930792	-0.12842962
2.8902560889495884e-10	-0.83988	-0.037641726	-0.13008083
2.9001670487922155e-10	-0.8418819	-0.05030647	-0.1315925
2.9100809038755297e-10	-0.84385574	-0.06326162	-0.13298556
2.920272704144449e-10	-0.8458378	-0.076867335	-0.13427003
2.930190884661523e-10	-0.8476969	-0.09037108	-0.13535799
2.9401114074032325e-10	-0.8494579	-0.1041175	-0.13627413
2.9500348651283913e-10	-0.8510865	-0.11808439	-0.13701294
2.960235472094344e-10	-0.8525826	-0.13264063	-0.13758847
2.970162977933635e-10	-0.85382473	-0.1469748	-0.13797697
2.98009162276792e-10	-0.8548163	-0.16145006	-0.13820848
2.990019352098723e-10	-0.8555188	-0.17603828	-0.13829856
3.0002226997009933e-10	-0.85590255	-0.19112478	-0.13826236
3.010150006138773e-10	-0.85591435	-0.2058693	-0.13812049
3.0200762891525226e-10	-0.8555424	-0.22065346	-0.13789128
3.0300022971135344e-10	-0.85476565	-0.23545454	-0.137591
3.0402036627886856e-10	-0.853529	-0.25065917	-0.13722332
3.0501299440186256e-10	-0.85188967	-0.2654225	-0.13682044
3.0600576090083075e-10	-0.8498163	-0.2801333	-0.1363828
3.070260753029585e-10	-0.8472356	-0.29517162	-0.13590476
3.0801889470483924e-10	-0.84429395	-0.3097043	-0.13541764
3.0901180840468727e-10	-0.8409393	-0.32411966	-0.13491234
3.100046903858781e-10	-0.83718777	-0.33839855	-0.1343909
3.110252809092213e-10	-0.8329384	-0.3529188	-0.13383871
3.12018580001337e-10	-0.8284428	-0.3668855	-0.13328515
3.1301205844073426e-10	-0.823616	-0.38068265	-0.13271442
3.140054009137655e-10	-0.81848514	-0.39429948	-0.13212508
3.1502646607624223e-10	-0.8129209	-0.4081064	-0.13149762
3.160199634005096e-10	-0.80725086	-0.42135382	-0.13086346
3.170136863870977e-10	-0.80135155	-0.43441963	-0.1302028
3.1800743104492903e-10	-0.79524714	-0.44730163	-0.12951237
3.1900136600015686e-10	-0.7889577	-0.46000224	-0.12878829
3.200230128617081e-10	-0.782322	-0.47286522	-0.12800494
3.2101702534417256e-10	-0.7757177	-0.48519254	-0.12720078
3.220109260324188e-10	-0.7689847	-0.49733102	-0.12635186
3.230048442331606e-10	-0.7621375	-0.5092787	-0.12545529
3.2402642942351817e-10	-0.7549958	-0.5213555	-0.12448209
3.2502026786569126e-10	-0.7479605	-0.5329019	-0.123483844
3.2601413447553576e-10	-0.7408512	-0.54424465	-0.12243418
3.270077579431723e-10	-0.7336817	-0.5553775	-0.12133295
3.280011264884131e-10	-0.7264625	-0.5662985	-0.120179586
3.290218865876503e-10	-0.71900094	-0.57730186	-0.118938595
3.300148661535389e-10	-0.7117087	-0.58779323	-0.117675304
3.3100757821153786e-10	-0.70439243	-0.5980731	-0.11635473
3.320001943908104e-10	-0.69705606	-0.6081445	-0.114974126
3.33020385434362e-10	-0.6894981	-0.61828005	-0.11348992
3.3401308132166555e-10	-0.6821281	-0.6279329	-0.11198037
3.3500576284825173e-10	-0.6747425	-0.637378	-0.110405564
3.360260512112916e-10	-0.667134	-0.6468674	-0.108719505
3.370188855529793e-10	-0.65971065	-0.6558863	-0.10701529
3.3801168560321284e-10	-0.6522654	-0.6646893	-0.105252214
3.39004477507267e-10	-0.64479554	-0.67327315	-0.10343562
3.40024908693938e-10	-0.63708997	-0.6818641	-0.10152001
3.4101792781528945e-10	-0.6295637	-0.6899959	-0.099617355
3.420108096022227e-10	-0.6220122	-0.6978997	-0.097686924
3.430039644553608e-10	-0.61443466	-0.70557904	-0.09573888
3.4402476588480113e-10	-0.6066258	-0.7132381	-0.09373139
3.4501804914489844e-10	-0.59901273	-0.7204675	-0.091785796
3.4601126000463723e-10	-0.59139144	-0.72748303	-0.08986084
3.4700454737659585e-10	-0.58376634	-0.73429435	-0.08796857
3.4802527473674e-10	-0.57593197	-0.74109125	-0.0860699
3.4901820715400227e-10	-0.56831574	-0.7475178	-0.08427702
3.500110897954352e-10	-0.560707	-0.75377357	-0.0825443
3.510034899186778e-10	-0.5531102	-0.75986767	-0.08087587
3.5202274286989036e-10	-0.5453176	-0.76597404	-0.07922821
3.530144769659084e-10	-0.5377465	-0.77177775	-0.07768516
3.5400630542966856e-10	-0.5301889	-0.77745605	-0.07619362
3.5502584300876695e-10	-0.5224411	-0.7831704	-0.0747027
3.560178498187976e-10	-0.51493156	-0.78861827	-0.07327899
3.570097545931426e-10	-0.507464	-0.7939608	-0.071865804
3.5800180152511256e-10	-0.50005233	-0.7992035	-0.07044518
3.590215521423394e-10	-0.49251333	-0.8044907	-0.06895808
3.6001388724596956e-10	-0.48527676	-0.80953807	-0.067466065
3.610062076608339e-10	-0.47816253	-0.8144889	-0.065911725
3.6202614629104337e-10	-0.47100347	-0.81947565	-0.06423122
3.630185482646535e-10	-0.46421176	-0.8242262	-0.06249904
3.640109086321059e-10	-0.45761597	-0.8288729	-0.060656164
3.650033049472865e-10	-0.45123777	-0.8334117	-0.05868852
3.660231968671059e-10	-0.44493166	-0.8379584	-0.056522764
3.670154117353026e-10	-0.43905795	-0.842261	-0.054263685
3.6800762671950813e-10	-0.43345943	-0.84643734	-0.051843315
3.6902744842340733e-10	-0.4280081	-0.8505899	-0.049176883
3.7001955393690123e-10	-0.42301416	-0.8544836	-0.04640008
3.7101159759004045e-10	-0.41833818	-0.8582221	-0.04343596
3.7200371973375505e-10	-0.4139909	-0.8617929	-0.04027897
3.7302343013587356e-10	-0.40987623	-0.8652732	-0.03683043
3.740154163594115e-10	-0.40622607	-0.8684578	-0.033276975
3.750073057745186e-10	-0.40293133	-0.8714268	-0.029529955
3.760268002441636e-10	-0.3999211	-0.87423515	-0.02548099
3.7701872823511285e-10	-0.39736316	-0.87671214	-0.021355446
3.7801051810023787e-10	-0.3951752	-0.8789178	-0.017054709
3.790024276330958e-10	-0.39336002	-0.8808346	-0.012586467
3.8002190300753274e-10	-0.3918867	-0.8824847	-0.0078301765
3.810138205928281e-10	-0.39083904	-0.883762	-0.0030536177
3.820058496063928e-10	-0.39017698	-0.88470054	0.0018591576
3.8302548217470275e-10	-0.38990533	-0.88529813	0.007037591
3.840176167192586e-10	-0.39004722	-0.88551146	0.012188787
3.8500986828247597e-10	-0.39059994	-0.8853532	0.017437486
3.860021613692463e-10	-0.3915751	-0.884817	0.022768227
3.8702226018666174e-10	-0.39303115	-0.88386774	0.028316472
3.880148161319772e-10	-0.39490288	-0.8825544	0.033763293
3.8900756610453277e-10	-0.39723745	-0.88085556	0.03924021
3.900004071479915e-10	-0.40004787	-0.8787708	0.044727296
3.9102088159609447e-10	-0.40344483	-0.8762262	0.05035618
3.920138946834108e-10	-0.40725613	-0.8733586	0.055802137
3.930069798990332e-10	-0.41157588	-0.8701045	0.061196826
3.940001847387978e-10	-0.4164118	-0.86646295	0.066520184
3.9502098155502693e-10	-0.42192486	-0.86231685	0.07189557
3.96014257141098e-10	-0.42782068	-0.8578898	0.07701331
3.970075796724701e-10	-0.4342416	-0.8530757	0.08200219
3.980009446141554e-10	-0.44118604	-0.8478762	0.08684614
3.990219724229173e-10	-0.44886467	-0.8421326	0.09165909
4.000153415525157e-10	-0.4568547	-0.8361592	0.09616857
4.0100873958996193e-10	-0.4653479	-0.82980883	0.10049876
4.020021863808652e-10	-0.47433245	-0.8230848	0.104643986
4.0302319340091883e-10	-0.48406237	-0.8157881	0.10870834
4.0401655311009e-10	-0.49399313	-0.808316	0.11247213
4.0501002889369666e-10	-0.5043616	-0.8004767	0.11605132
4.060034837007428e-10	-0.5151416	-0.79227173	0.11945088
4.070246601911416e-10	-0.52662164	-0.7834561	0.12276668
4.0801825901583814e-10	-0.53814757	-0.77450514	0.12582976
4.0901175516590196e-10	-0.5499884	-0.7651844	0.12874433
4.100052565081752e-10	-0.56210864	-0.755489	0.13152513
4.110264561976118e-10	-0.5748186	-0.7451282	0.13426045
4.1202006675647576e-10	-0.5873918	-0.73465794	0.13681886
4.13013818481355e-10	-0.6001341	-0.72379625	0.13929242
4.14007589416523e-10	-0.6130097	-0.71253914	0.14169626
4.150012984987212e-10	-0.6259861	-0.7008822	0.14404424
4.160225249809028e-10	-0.63939714	-0.68848014	0.14641182
4.170158937891984e-10	-0.6524887	-0.67600095	0.14868046
4.180091186038782e-10	-0.66559976	-0.66311014	0.15092184
4.190022135219943e-10	-0.67870784	-0.64980376	0.15313984
4.200228181407519e-10	-0.69215477	-0.6356907	0.1553963
4.2101573104510467e-10	-0.7051911	-0.6215309	0.15756722
4.220084674683793e-10	-0.71815723	-0.60694695	0.1597092
4.23000989417942e-10	-0.73102903	-0.5919372	0.16181548
4.240209496417944e-10	-0.7441347	-0.576064	0.16393438
4.250133499822226e-10	-0.75674	-0.56018233	0.16594191
4.260058549420276e-10	-0.7691727	-0.5438685	0.16788615
4.2702601271631026e-10	-0.78173846	-0.52665377	0.16980802
4.2801845014644086e-10	-0.79372215	-0.5094769	0.17159353
4.2901082045300167e-10	-0.80543447	-0.4918828	0.17328747
4.300030715536411e-10	-0.8168415	-0.4738802	0.1748822
4.3102282887532974e-10	-0.82821333	-0.4549602	0.176411
4.3201511425753884e-10	-0.83890384	-0.43615374	0.17778537
4.3300718188353703e-10	-0.84919107	-0.416973	0.1790421
4.340267510113196e-10	-0.8593149	-0.39688066	0.1802056
4.3501876984984094e-10	-0.8687008	-0.37697712	0.1812071
4.36010792435611e-10	-0.877604	-0.35674146	0.18207349
4.3700295414744663e-10	-0.8860032	-0.3361898	0.18279797
4.3802262344293296e-10	-0.8940891	-0.31476447	0.18338668
4.3901473985427537e-10	-0.90140915	-0.2936468	0.18379971
4.4000694971584125e-10	-0.9081781	-0.27228642	0.18404701
4.4102687952519547e-10	-0.9145525	-0.2501093	0.18412
4.4201928944849323e-10	-0.9201826	-0.2283497	0.18400706
4.430118186997191e-10	-0.9252477	-0.20644465	0.18370605
4.4400442321076256e-10	-0.9297488	-0.1844331	0.18321167
4.450247683974547e-10	-0.9337916	-0.16173963	0.18249823
4.460174559333812e-10	-0.9371623	-0.13964011	0.18160272
4.4701011861590743e-10	-0.9399853	-0.11756554	0.18050903
4.480029516285734e-10	-0.9422697	-0.0955582	0.17921959
4.4902352097812896e-10	-0.9440672	-0.07306061	0.17769554
4.500165705889694e-10	-0.9452935	-0.05134113	0.1760271
4.5100954794037754e-10	-0.94601977	-0.029842092	0.17418611
4.520024948625093e-10	-0.94626474	-0.008611282	0.17218539
4.5302298713338525e-10	-0.9460377	0.012880225	0.16997893
4.5401594306035843e-10	-0.9453761	0.033427205	0.16770403
4.5500888208808055e-10	-0.9443066	0.05357369	0.16532281
4.5600175592974557e-10	-0.9428579	0.073283635	0.16285619
4.570222719503473e-10	-0.9410042	0.0930579	0.16025375
4.5801526284327807e-10	-0.9388758	0.11180361	0.15767682
4.590083456634285e-10	-0.9364557	0.13004513	0.15507407
4.600015331592608e-10	-0.9337718	0.14777084	0.15246117
4.610224139623423e-10	-0.9307661	0.16544378	0.14977819
4.6201583584004175e-10	-0.92762625	0.18210585	0.14717904
4.630094104640322e-10	-0.9242971	0.19824176	0.1445964
4.6400310832120846e-10	-0.92079985	0.21385236	0.14203218
4.6502388159546874e-10	-0.9170525	0.22934216	0.1394167
4.660158211624979e-10	-0.9132779	0.24386758	0.13688986
4.670075565742468e-10	-0.90938675	0.25787446	0.13437319
4.680269829774603e-10	-0.90527666	0.27173913	0.13178977
4.690188907020843e-10	-0.9011784	0.2847143	0.12927236
4.700109027247564e-10	-0.89698744	0.29718652	0.12674306
4.710030689857696e-10	-0.8927063	0.30916002	0.12419334
4.72022886970144e-10	-0.8882135	0.3209496	0.12154211
4.730147016701122e-10	-0.88375443	0.33191618	0.11892418
4.740059489810482e-10	-0.8792095	0.3423888	0.11625861
4.750246855199305e-10	-0.874448	0.35264808	0.11345703
4.760159591263549e-10	-0.8697308	0.36214507	0.11066016
4.770071684672764e-10	-0.86493844	0.37116688	0.10778393
4.780260475792524e-10	-0.85994565	0.37995124	0.10473558
4.790173921922939e-10	-0.8550392	0.3880276	0.101673104
4.800089354119545e-10	-0.8501035	0.39564762	0.09850976
4.810005235705859e-10	-0.8451625	0.40281674	0.095243186
4.820197171020096e-10	-0.8401057	0.4097231	0.09177801
4.830114443399151e-10	-0.83523375	0.41600162	0.08830403
4.840033003087929e-10	-0.830436	0.4218535	0.08473432
4.85022734122372e-10	-0.82561004	0.42743188	0.080975115
4.860147901257006e-10	-0.82104	0.43244502	0.07724115
4.870069249689259e-10	-0.8166148	0.4370583	0.07344729
4.88026705038499e-10	-0.8122358	0.4413936	0.0695045
4.890189406499559e-10	-0.80815315	0.44522774	0.06564714
4.900112287737163e-10	-0.8042555	0.4486957	0.06179148
4.910035827806199e-10	-0.80054784	0.45181134	0.057961076
4.920234209825557e-10	-0.7969371	0.45466226	0.05407627
4.930156877609502e-10	-0.79361576	0.4571118	0.050370466
4.940079586851945e-10	-0.7904776	0.45925972	0.04675948
4.950001605940514e-10	-0.78751385	0.46112496	0.043263
4.960199957541776e-10	-0.78463787	0.46276844	0.03980588
4.970121900664116e-10	-0.7819929	0.46412194	0.036589686
4.980045065513832e-10	-0.779487	0.4652546	0.033529278
4.990243698501922e-10	-0.7770457	0.4662111	0.030554932
5.000166593802155e-10	-0.77479357	0.46696272	0.027832452
5.010090441350767e-10	-0.7726598	0.46756113	0.025281005
5.020014577006888e-10	-0.7706467	0.4680303	0.022900239
5.030213280890893e-10	-0.76871264	0.46840334	0.020628283
5.040135534283236e-10	-0.76697636	0.46868503	0.018582264
5.050058074081539e-10	-0.7654034	0.46891034	0.016690677
5.060256118050262e-10	-0.7639827	0.46910655	0.014897747
5.070178552846327e-10	-0.76281977	0.46928373	0.013289439
5.080100902918902e-10	-0.76190287	0.46946514	0.011803786
5.090023728788434e-10	-0.7612616	0.4696653	0.010428794
5.100222808519972e-10	-0.76091945	0.4699027	0.009118544
5.110147357127787e-10	-0.7609194	0.47017327	0.007932364
5.12007236869077e-10	-0.7612674	0.47048885	0.0068233567
5.130273868647522e-10	-0.7620016	0.4708641	0.0057543265
5.140200908991617e-10	-0.7630881	0.47128087	0.0047748415
5.150129209475001e-10	-0.76453936	0.47174978	0.0038481324
5.160058374337942e-10	-0.7663442	0.47227108	0.0029679595
5.170263993273349e-10	-0.7685474	0.47286123	0.002105591
5.18019458295971e-10	-0.77100176	0.47348714	0.0013014816
5.190125779683787e-10	-0.7737273	0.474162	0.000525463
5.200057850919757e-10	-0.77668315	0.47488227	-0.0002292644
5.210265971611134e-10	-0.7799122	0.47566414	-0.0009901724
5.220197982119853e-10	-0.78318954	0.47645736	-0.0017233135
5.230130016469317e-10	-0.7865496	0.47727275	-0.002455864
5.240061546409129e-10	-0.7899423	0.47809815	-0.0031929277
5.250269176300663e-10	-0.79341334	0.47894272	-0.003958519
5.260199879512902e-10	-0.79672986	0.47974586	-0.0047116536
5.270130500900943e-10	-0.7999477	0.4805163	-0.005470316
5.280061384608804e-10	-0.80303425	0.48124084	-0.0062285266
5.2902681921034e-10	-0.80604184	0.4819262	-0.0069975066