# t (s)	mx ()	my ()	mz ()
0	1	0	0
5.254742773288541e-12	0.999851	9.9371886e-11	-2.1260962e-10
1.0134783956618518e-11	0.999414	-1.6176819e-11	-1.1554871e-10
1.506006639134255e-11	0.9985774	2.7269495e-10	-2.2878643e-10
2.0004749837933492e-11	0.9973178	3.235364e-10	1.2710358e-10
2.5055493147347913e-11	0.99577826	5.546338e-10	-1.01682864e-10
3.020436240802969e-11	0.9943484	1.6639014e-09	4.564174e-11
3.507838699384727e-11	0.9935404	1.1000237e-09	7.048471e-11
4.027406982063139e-11	0.99353117	7.0253614e-10	3.7206682e-10
4.518511030031888e-11	0.99431205	1.617682e-10	2.7847238e-10
5.02048051829848e-11	0.99561715	1.03993834e-10	4.6912774e-10
5.500371530491048e-11	0.9969967	-3.6051195e-10	4.0095402e-10
6.010612921810401e-11	0.9982687	-5.257466e-10	1.6870111e-10
6.504325811382699e-11	0.99911296	-5.176582e-10	5.1996917e-11
7.013683569212705e-11	0.99955064	-4.2059728e-10	1.7505629e-10
7.501456702876603e-11	0.99962425	-6.2858496e-10	2.9696018e-10
8.019668226905424e-11	0.9994198	-8.481275e-10	4.1828632e-10
8.520129495211802e-11	0.99902827	-9.359445e-10	3.2006992e-10
9.02554555829754e-11	0.9984924	-1.3496089e-09	2.7847238e-10
9.504517255403243e-11	0.9978333	-9.983409e-10	1.2941455e-10
1.0025014079285485e-10	0.99690735	-1.1462432e-09	-1.1092676e-10
1.0512175153913576e-10	0.9959026	-6.23963e-10	-3.2700284e-10
1.1007739525430855e-10	0.9949668	-6.0085326e-10	-5.783213e-10
1.1511450337607503e-10	0.9944151	-9.290116e-10	-6.343624e-10
1.2023279504908864e-10	0.99450314	-4.2290826e-10	-6.2280753e-10
1.2520063202159706e-10	0.9952261	-5.5694477e-10	-6.4013983e-10
1.302173296736365e-10	0.9963539	-7.256459e-10	-8.0652995e-10
1.3518527449162117e-10	0.9974945	4.8530457e-11	-6.8982575e-10
1.4018427031536643e-10	0.9983525	2.056767e-10	-7.5222206e-10
1.450515858195932e-10	0.9987966	3.8362172e-10	-6.771154e-10
1.5011040737185196e-10	0.99894273	1.5321758e-09	-6.3089595e-10
1.550149682621803e-10	0.9989801	1.7563403e-09	-3.7380007e-10
1.6008139343609432e-10	0.999047	1.7262977e-09	-3.7524442e-10
1.6509575531580214e-10	0.99907434	2.2000475e-09	-1.871889e-10
1.7003096615423598e-10	0.998868	2.5397606e-09	9.012799e-11
1.7507211236941545e-10	0.998265	2.5651812e-09	2.0798767e-10
1.8008359555177737e-10	0.9972987	2.4935412e-09	1.8776665e-10
1.851542907247458e-10	0.99617136	2.8933396e-09	3.050486e-10
1.9006110333049889e-10	0.9952527	1.9204196e-09	6.9329226e-12
1.9500327538796152e-10	0.99475706	1.6500356e-09	1.3865845e-10
2.0015144120644464e-10	0.9948181	1.2664139e-09	2.761614e-10
2.050535867571276e-10	0.9953744	1.2340602e-09	3.928656e-10
2.1017790350169862e-10	0.9962922	1.4651576e-09	3.119815e-10
2.1506308293864882e-10	0.99726516	1.2617919e-09	1.6407917e-10
2.2002149891866483e-10	0.99817073	1.0676701e-09	3.0158212e-10
2.2524742448626258e-10	0.9989324	6.054752e-10	3.0042663e-11
2.3017653632397513e-10	0.9994352	1.1323773e-09	-7.16402e-11
2.350610064343745e-10	0.9997143	1.0792249e-09	-9.41722e-11
2.4014446535460964e-10	0.999746	9.44033e-10	9.3016705e-11
2.4519196922866793e-10	0.9994745	1.0041182e-09	3.4549064e-10
2.50250076589742e-10	0.99886334	7.3026785e-10	3.9864304e-10
2.5510645314056e-10	0.9979748	7.857312e-10	5.430789e-10
2.6002402299098807e-10	0.996873	-3.4664613e-10	6.4591726e-10
2.6523067192089274e-10	0.9956999	-9.428774e-10	7.9844154e-10
2.701596121958438e-10	0.9948709	-2.0983646e-09	5.8756516e-10
2.750859901930599e-10	0.9945768	-1.9319744e-09	3.4635725e-10
2.8000864311342344e-10	0.9949285	-2.6483764e-09	2.7153946e-10
2.850871424365696e-10	0.9958487	-2.232401e-09	1.2421486e-10
2.9010940517468005e-10	0.9970166	-3.6790708e-09	3.928656e-11
2.9513797547041146e-10	0.9981262	-3.3208698e-09	-2.1954254e-10
3.001843309750394e-10	0.9989848	-3.4387295e-09	-1.432804e-10
3.052309827180816e-10	0.99953264	-3.295449e-09	-3.5357905e-10
3.1001489189162285e-10	0.99978477	-2.7003733e-09	-2.8887176e-10
3.1505087455169823e-10	0.9997987	-2.408035e-09	-3.4144643e-10
3.201110085480031e-10	0.99955064	-2.0683217e-09	-4.5295093e-10
3.251905171242715e-10	0.9990151	-1.3588528e-09	-8.296397e-10
3.300302261321419e-10	0.9982392	-4.5295093e-10	-1.117356e-09
3.351453999907883e-10	0.99722207	5.869874e-10	-1.0410939e-09
3.4003041357964936e-10	0.99623704	1.2294382e-09	-1.1566426e-09
3.452055366730639e-10	0.99543047	2.7500593e-09	-1.2745023e-09
3.5016273188265896e-10	0.99509615	3.8223513e-09	-1.1092676e-09
3.5516914362576534e-10	0.9952812	5.107253e-09	-8.839476e-10
3.602264828952539e-10	0.9959353	5.1511613e-09	-5.453899e-10
3.6522449945185816e-10	0.99686086	4.8900213e-09	-5.2921306e-10
3.700635921981536e-10	0.99780726	5.634155e-09	-2.1954254e-10
3.75076266055125e-10	0.99863404	5.769347e-09	3.4375742e-11
3.8005244914472053e-10	0.99916613	5.7993894e-09	1.0283835e-10
3.850176545019787e-10	0.9993806	5.7566365e-09	2.6229557e-10
3.9023952560409547e-10	0.9993339	5.6803744e-09	5.2747984e-10
3.952384221859725e-10	0.9991335	5.520917e-09	8.504385e-10
4.000267524137526e-10	0.9988647	4.5063997e-09	1.1291997e-09
4.051216486722506e-10	0.99848735	3.6236074e-09	1.3507644e-09
4.1001768813844e-10	0.99798435	2.5744251e-09	1.6043938e-09
4.152229994747142e-10	0.9972899	7.5568857e-10	1.8551345e-09
4.2020593634462073e-10	0.9965687	-1.3819625e-09	2.0740993e-09
4.2521705160313253e-10	0.99597216	-3.135992e-09	1.9412183e-09
4.3025119765369744e-10	0.9956965	-4.5872834e-09	1.7941826e-09
4.350253644307997e-10	0.9958343	-6.345935e-09	1.583595e-09
4.402411646293156e-10	0.9963853	-7.563818e-09	1.155487e-09
4.4506886479120716e-10	0.9971006	-8.890318e-09	6.6787154e-10
4.500729256209472e-10	0.9978364	-9.3917985e-09	1.0861578e-10
4.5504883743158626e-10	0.99841	-9.273939e-09	-3.4491288e-10
4.600252345487782e-10	0.998792	-9.082128e-09	-6.2020766e-10
4.6501607725148037e-10	0.9990381	-8.495141e-09	-7.490445e-10
4.700275721257047e-10	0.99920005	-7.99597e-09	-1.01134e-09
4.750626728990241e-10	0.99925804	-7.053093e-09	-1.2646806e-09
4.801236942150665e-10	0.99913186	-6.0570633e-09	-1.5148436e-09
4.852118295754791e-10	0.99874824	-4.6843445e-09	-1.8256696e-09
4.900653550687252e-10	0.99814546	-3.0227543e-09	-1.9100201e-09
4.951921841022437e-10	0.9973512	-1.9412183e-09	-2.2511777e-09
5.000797826805459e-10	0.99659765	-3.7899975e-10	-2.3479496e-09
5.052397472871049e-10	0.99599904	1.867267e-09	-2.2624436e-09
5.101615146971309e-10	0.99576026	2.6945959e-09	-2.3155962e-09
5.151071436820976e-10	0.9959023	5.3845697e-09	-2.1099194e-09
5.200745202173874e-10	0.99638796	6.2303864e-09	-1.91262e-09
5.250378250987025e-10	0.9970959	7.908153e-09	-1.5651073e-09
5.301981846213965e-10	0.9979038	9.599787e-09	-1.1445099e-09
5.350578769386395e-10	0.9985964	1.0168286e-08	-5.973868e-10
5.40151092591714e-10	0.999157	1.0129e-08	-1.606127e-10
5.452373996953438e-10	0.99950504	1.0235304e-08	1.4096942e-10
5.500732369561978e-10	0.99962634	9.842439e-09	5.124585e-10
5.551720848788456e-10	0.99951977	8.963113e-09	8.1259627e-10
5.600309656777653e-10	0.99917746	8.227068e-09	1.1393102e-09
5.65166414936509e-10	0.99855953	6.97452e-09	1.6165264e-09
5.70016344277606e-10	0.9977835	5.6503318e-09	1.9389073e-09
5.750892190167226e-10	0.9969025	3.9563877e-09	2.0648554e-09
5.801503992341465e-10	0.996152	2.5374496e-09	2.0931648e-09
5.852130166372048e-10	0.9957354	9.521214e-10	2.0171915e-09
5.900318238429746e-10	0.9957637	-1.867267e-09	1.8851771e-09
5.951210434120106e-10	0.9962284	-3.0597298e-09	1.745941e-09
6.002327181094195e-10	0.9969955	-4.097357e-09	1.4108497e-09
6.051127231804061e-10	0.9978117	-4.7975823e-09	1.0867356e-09
6.100154977262378e-10	0.99854374	-5.4723865e-09	9.480772e-10
6.151975822580871e-10	0.999109	-6.1263923e-09	6.5747213e-10
6.201218196137981e-10	0.9994157	-6.5816543e-09	4.7230536e-10
6.250152343717152e-10	0.9995095	-6.801197e-09	1.4299152e-10
6.301487522799823e-10	0.9993994	-6.3921544e-09	-1.964328e-10
6.350190488839818e-10	0.9991038	-6.2950933e-09	-4.1944181e-10
6.401444541194892e-10	0.99860674	-5.2921307e-09	-7.5626627e-10
6.450150061541036e-10	0.9980022	-5.0795212e-09	-8.527494e-10
6.501350610736782e-10	0.99731493	-4.192107e-09	-1.0231838e-09
6.552135893253524e-10	0.99670094	-2.763925e-09	-1.1341106e-09
6.6001190355035e-10	0.9963021	-2.592913e-09	-1.2511037e-09
6.650501917812853e-10	0.9961722	-7.857312e-10	-1.3449869e-09
6.700876978952188e-10	0.9963756	-4.8530457e-11	-1.3709854e-09
6.751337470300689e-10	0.99686784	9.91408e-10	-1.3363208e-09
6.801943627420254e-10	0.99752724	1.7239867e-09	-1.1837965e-09
6.850186784781614e-10	0.9981623	2.669175e-09	-9.740756e-10
6.901159894126013e-10	0.9987014	3.491882e-09	-7.403783e-10
6.952341426578178e-10	0.9990269	3.4063758e-09	-4.0499823e-10
7.001167037332559e-10	0.99913687	3.380955e-09	-2.9060498e-10
7.050206190434452e-10	0.99910146	3.1151932e-09	-3.7120022e-11
7.102079624393945e-10	0.9989637	2.7269496e-09	6.9618096e-11
7.151373428763896e-10	0.9987543	2.9164493e-09	5.690774e-11
7.200155249108719e-10	0.99845093	2.3155962e-09	1.1843743e-10
7.251199294800864e-10	0.9980113	1.8118037e-09	4.044205e-11
7.302124037582559e-10	0.997483	1.5021332e-09	2.507407e-10
7.35048572148753e-10	0.99699426	1.2895236e-09	2.3745259e-10
7.401423320363542e-10	0.9966255	1.5691515e-09	3.8448833e-10
7.452392316028628e-10	0.9965124	9.313226e-10	4.3576306e-10
7.500812226989481e-10	0.9966694	-9.9371886e-11	3.2815833e-10
7.551732232740816e-10	0.99705607	2.934937e-10	2.2763096e-10
7.600032131288468e-10	0.99753344	8.227068e-10	2.5189617e-10
7.650807773442488e-10	0.9980443	1.4790234e-10	3.160257e-10
7.701559646234907e-10	0.99849147	-5.869874e-10	1.0919353e-10
7.752310533771849e-10	0.99884456	-2.773169e-10	1.3172552e-10
7.800577340674291e-10	0.999084	-1.8949987e-10	2.1549834e-10
7.851454338985499e-10	0.99921644	-3.8131073e-10	3.160257e-10
7.902424969756132e-10	0.99918836	-4.1597534e-10	4.552619e-10
7.950964556180139e-10	0.9989777	-7.18713e-10	4.8617116e-10
8.002197339816338e-10	0.9985565	-1.3704077e-09	4.9165977e-10
8.051009731595741e-10	0.9980107	-1.6592794e-09	5.199692e-10
8.102549346195801e-10	0.99738127	-1.9250415e-09	3.4029093e-10
8.151651882641887e-10	0.9968528	-2.4311448e-09	2.6922847e-10
8.200863293911026e-10	0.99650973	-2.6391325e-09	1.2623697e-10
8.250190140166129e-10	0.99643326	-2.509718e-09	-9.446107e-11
8.302195977703199e-10	0.99666345	-1.5853282e-09	-2.7905012e-10
8.35151374241199e-10	0.9971233	-1.6870111e-09	-2.9147162e-10
8.402424274617547e-10	0.9977303	-2.2786204e-09	-1.5945721e-10
8.450140019420425e-10	0.9983029	-1.871889e-09	-1.7967824e-10
8.500006928785852e-10	0.99880785	-2.322529e-09	-7.395117e-11
8.552200035810466e-10	0.99917537	-2.3641265e-09	-3.2469186e-10
8.601890304850649e-10	0.9993507	-2.0221023e-09	-4.3532974e-10
8.651661773176967e-10	0.9993479	-1.8141147e-09	-5.8380983e-10
8.701577095076291e-10	0.999159	-1.8094928e-09	-6.213632e-10
8.751675461967712e-10	0.99878204	-1.5437307e-09	-6.707602e-10
8.80198241951305e-10	0.99824256	-1.601505e-09	-7.083136e-10
8.852508972539752e-10	0.9976151	-7.949751e-10	-9.064796e-10
8.900712797910377e-10	0.9970484	-3.5126807e-10	-1.0751807e-09
8.951659014365965e-10	0.99662036	1.6639014e-10	-1.0358941e-09
9.000243065049996e-10	0.99647707	5.4076793e-10	-1.1706528e-09
9.051560697606652e-10	0.9966419	5.869874e-10	-1.4154716e-09
9.100460941563124e-10	0.99705154	1.2895236e-09	-1.3576973e-09
9.152066635458418e-10	0.9976348	1.6454136e-09	-1.3692522e-09
9.201191691374136e-10	0.99820817	2.6992177e-09	-1.5766621e-09
9.250393350447504e-10	0.9986969	3.6143635e-09	-1.3834068e-09
9.302236495000191e-10	0.99904996	4.7883386e-09	-1.17968e-09
9.351510195372483e-10	0.99920654	5.708106e-09	-9.0301316e-10
9.400778169284583e-10	0.9991928	5.918405e-09	-6.3349576e-10
9.450016846261606e-10	0.9990295	6.348246e-09	-4.090424e-10
9.50178971137798e-10	0.99872714	6.59552e-09	1.3230327e-10
9.550912951220449e-10	0.998349	6.1379475e-09	4.6479467e-10
9.602551045647878e-10	0.9978979	6.07324e-09	8.721039e-10
9.651251248774756e-10	0.9974756	5.712728e-09	1.0468713e-09
9.702204113737259e-10	0.9971087	4.732875e-09	1.2355046e-09
9.750478534458878e-10	0.99690145	4.3654302e-09	1.4264487e-09
9.801247193023396e-10	0.9968833	3.1637235e-09	1.411283e-09
9.851992698818374e-10	0.9970792	1.5298649e-09	1.4891339e-09
9.900211630182436e-10	0.9974241	5.6387767e-10	1.4144605e-09
9.950952958151549e-10	0.9978708	-5.5925575e-10	1.1885629e-09
1e-09	0.9982902	-1.7540294e-09	1.160109e-09
