# t (s)	mx ()	my ()	mz ()
0	1	0	0
5.015327936626084e-12	0.9996996	-0.011266512	-0.00038092796
1.0013586681589918e-11	0.99875593	-0.02235404	-0.0013123506
1.501590763418699e-11	0.9969834	-0.032857984	-0.0028069168
2.0004406359737587e-11	0.9943396	-0.042260353	-0.00483009
2.5002404586096118e-11	0.9911686	-0.050161295	-0.0073100175
3.000670064442056e-11	0.98826176	-0.056216024	-0.010124119
3.501127736099781e-11	0.98654085	-0.0602216	-0.013137365
4.0011802078938834e-11	0.9865666	-0.062073987	-0.016236253
4.501253098832164e-11	0.9882548	-0.061697315	-0.01934857
5.000694561079395e-11	0.9909659	-0.059019998	-0.022417407
5.501203351954459e-11	0.9938481	-0.05397936	-0.025392648
6.000339797851191e-11	0.99614716	-0.046625216	-0.028176686
6.501465070657955e-11	0.99749607	-0.037027378	-0.030680789
7.00071791230731e-11	0.99794656	-0.025498545	-0.032766767
7.500497009399834e-11	0.9976987	-0.012320244	-0.03434139
8.000221328330862e-11	0.99691504	0.0021117013	-0.035310715
8.501236824611147e-11	0.9958112	0.017399047	-0.03559771
9.001297394996642e-11	0.9943209	0.032988902	-0.03514781
9.500596165199032e-11	0.992016	0.048350766	-0.03394991
1.0000628121161098e-10	0.98847264	0.06294684	-0.03202819
1.0501442879977009e-10	0.9839451	0.07624734	-0.02945904
1.1001109847695489e-10	0.9796924	0.08784245	-0.02637953
1.1501376804870246e-10	0.9773433	0.097531416	-0.022917297
1.2000614265299733e-10	0.9778819	0.105019	-0.019192403
1.2500950302245234e-10	0.98106366	0.10998007	-0.015277432
1.3000106664322622e-10	0.98526204	0.112009555	-0.011276659
1.3500650179138571e-10	0.9884353	0.11082203	-0.0072786533
1.4001155482210888e-10	0.9893195	0.10633301	-0.0034262207
1.4500056209758122e-10	0.9882453	0.09876068	0.00015466288
1.5000037536863125e-10	0.98701173	0.08849527	0.0033560237
1.5500636597251798e-10	0.98761046	0.076048024	0.006116124
1.6001048451598676e-10	0.99028933	0.061729103	0.008480702
1.6500671465079508e-10	0.9930103	0.045661416	0.010432867
1.7001028757925818e-10	0.9930617	0.028061872	0.0117902
1.750075077121942e-10	0.98902446	0.009581981	0.012309427
1.8000273544606535e-10	0.98183364	-0.009016598	0.011877214
1.8501464244360452e-10	0.97423875	-0.027243381	0.010545111
1.9000200548623939e-10	0.9691273	-0.044752046	0.008447851
1.9500459260165544e-10	0.967925	-0.061531905	0.005643529
2.0001541978715567e-10	0.97056633	-0.07722097	0.002256701
2.0500469986396122e-10	0.97521025	-0.091159	-0.001469519
2.1000247628878957e-10	0.9792138	-0.10264714	-0.005362533
2.1501523551702288e-10	0.9806661	-0.11090523	-0.0092512965
2.2000441568096609e-10	0.9795682	-0.115478896	-0.012845907
2.250130274671375e-10	0.9774466	-0.11665263	-0.015910333
2.3000978776048825e-10	0.9758211	-0.115288205	-0.018291822
2.3500340497031056e-10	0.97535014	-0.11268775	-0.02007495
2.40010607933654e-10	0.9756918	-0.11002454	-0.021595765
2.4500739118452984e-10	0.9755089	-0.1078093	-0.02353394
2.500017720859309e-10	0.9730986	-0.10533924	-0.026635068
2.5500314310692256e-10	0.966766	-0.10076743	-0.030997913
2.6001463704859564e-10	0.95623296	-0.092330664	-0.03588824
2.650093268272579e-10	0.9446105	-0.079606354	-0.040211838
2.7000911138827847e-10	0.9378629	-0.063331	-0.043300733
2.7501171583927984e-10	0.9412164	-0.04474935	-0.045108266
2.8001524454450555e-10	0.9538652	-0.024926417	-0.046250273
2.850004740280623e-10	0.9685458	-0.004160959	-0.047641993
2.90012657073701e-10	0.97747123	0.01797075	-0.04981317
2.9500988467528896e-10	0.977062	0.040985428	-0.052716725
3.0000385061821756e-10	0.9685635	0.064038135	-0.056354873
3.0501199570841186e-10	0.95518535	0.08721958	-0.061166905
3.100085842359447e-10	0.9400298	0.11295897	-0.06733931
3.150093382675233e-10	0.9246721	0.14542915	-0.07381182
3.20013916443379e-10	0.9086303	0.18674088	-0.07823031
3.2500424211730524e-10	0.8899049	0.23402679	-0.07810122
3.300098813921209e-10	0.86708736	0.28114164	-0.07216745
3.3501425532739307e-10	0.8412932	0.32236767	-0.06082618
3.4000352457014024e-10	0.8158408	0.35543793	-0.04594091
3.450136446123077e-10	0.79578525	0.38151777	-0.03001747
3.50007174816345e-10	0.7863028	0.4029948	-0.015144634
3.5500981632863606e-10	0.7897731	0.4215458	-0.0015698546
3.600145328179045e-10	0.80567855	0.43569213	0.011740306
3.650057869517019e-10	0.8292903	0.44201687	0.02588738
3.700139059186771e-10	0.8517393	0.43602368	0.04187391
3.750087199737626e-10	0.86463434	0.4131787	0.05997486
3.8000699475354393e-10	0.8648646	0.37104502	0.07947223
3.8500444105485535e-10	0.8537779	0.31136006	0.09879027
3.9000060446856293e-10	0.8363104	0.2391365	0.116823666
3.950156233137947e-10	0.8185512	0.15887521	0.13330188
4.000023229878245e-10	0.80502796	0.074269705	0.14751454
4.0501001764361355e-10	0.7964423	-0.015909063	0.15836643
4.1000687944324693e-10	0.7896276	-0.1147024	0.16405122
4.1500646430471335e-10	0.7800599	-0.22509645	0.16238578
4.2001075636945187e-10	0.76315403	-0.34442973	0.15219316
4.2500818818596517e-10	0.735562	-0.46342766	0.13489397
4.300135432215643e-10	0.69539183	-0.5721934	0.11387308
4.350009882156566e-10	0.64257395	-0.66172385	0.09196372
4.4000160133348615e-10	0.58018476	-0.7253603	0.06942058
4.4501040204941516e-10	0.5156453	-0.76108074	0.04601815
4.5000189658570266e-10	0.45557806	-0.77358246	0.021609165
4.550121738484623e-10	0.40464586	-0.7708511	-0.003953438
4.600078161525658e-10	0.36777666	-0.76063883	-0.029018857
4.650085627229603e-10	0.34791476	-0.7480146	-0.05223487
4.700001355977935e-10	0.34755895	-0.7351868	-0.07241114
4.750026973478192e-10	0.3696771	-0.72235215	-0.088399485
4.800106076522259e-10	0.4133945	-0.706837	-0.10054712
4.850085480283361e-10	0.47184786	-0.6834809	-0.11149715
4.900091103872904e-10	0.5342636	-0.6491557	-0.12279714
4.950145006048199e-10	0.59337145	-0.6072968	-0.13275607
5.000023468717913e-10	0.6502667	-0.56580484	-0.13990611
5.050077536864987e-10	0.7070848	-0.5276887	-0.14632389
5.100060818552023e-10	0.75923973	-0.4870762	-0.15494515
5.150109631898481e-10	0.80022895	-0.43393385	-0.16590068
5.200121881276556e-10	0.82410985	-0.36117816	-0.17709506
5.250108099648571e-10	0.82886964	-0.26802248	-0.18605088
5.300016314681641e-10	0.81593084	-0.16129258	-0.19178382
5.350015691280633e-10	0.7899557	-0.049072806	-0.19550838
5.400081716805851e-10	0.75285864	0.06272014	-0.19818193
5.450089292984208e-10	0.7030339	0.16591963	-0.19864918
5.500031452958993e-10	0.64500254	0.2542054	-0.19580705
5.55011665984518e-10	0.59194136	0.33412972	-0.19054087
5.600024903766125e-10	0.54998094	0.41604027	-0.1823617
5.650062913443727e-10	0.508969	0.50284994	-0.16971153
5.700096653209066e-10	0.46047735	0.5942094	-0.15380143
5.750153993924394e-10	0.4053388	0.68848664	-0.13716914
5.800146104789679e-10	0.3500216	0.77067316	-0.1209384
5.850101799094445e-10	0.2924876	0.8188114	-0.10676237
5.900018808321361e-10	0.22771385	0.8249986	-0.095171876
5.950105210439478e-10	0.15889198	0.7940288	-0.0849993
6.000104218191751e-10	0.09807639	0.73120874	-0.07688025
6.050112349723797e-10	0.056248423	0.6584622	-0.073193945
6.100074239923189e-10	0.034101546	0.6001187	-0.071772836
6.150152146215654e-10	0.022566859	0.56055325	-0.06889541
6.200098509312601e-10	0.0083254455	0.54223686	-0.0639867
6.250146099395519e-10	-0.0238548	0.5437181	-0.05803988
6.300143560836712e-10	-0.08328736	0.5474436	-0.055814434
6.350077033942889e-10	-0.16541222	0.5482882	-0.060935173
6.400126028834577e-10	-0.2539481	0.5538078	-0.06843111
6.450061468432803e-10	-0.3369171	0.564078	-0.071232125
6.500025458592678e-10	-0.4207105	0.581225	-0.06879804
6.550034468499987e-10	-0.51089805	0.60687363	-0.069789544
6.600113956596041e-10	-0.59911865	0.6157169	-0.07774841
6.650004750567097e-10	-0.6658308	0.5903646	-0.08842741
6.700137782154244e-10	-0.7074872	0.5339673	-0.09913093
6.750111897736374e-10	-0.72935534	0.4514291	-0.10623406
6.800151699281252e-10	-0.739706	0.35070115	-0.10665198
6.850044526826366e-10	-0.7430535	0.24483004	-0.10356016
6.900137442680278e-10	-0.7369602	0.14557518	-0.10120813
6.950143783938661e-10	-0.72681177	0.06176029	-0.10148966
7.000035708780614e-10	-0.72461253	-0.0043666773	-0.10246754
7.050058084618214e-10	-0.73370004	-0.05241087	-0.10308154
7.100104283893014e-10	-0.75366235	-0.09547097	-0.10174405
7.150034886383246e-10	-0.78140163	-0.14827946	-0.09582262
7.200126992364196e-10	-0.81325465	-0.20779473	-0.0869652
7.250056245975847e-10	-0.84875035	-0.265584	-0.07652075
7.300116820352956e-10	-0.8790191	-0.31115875	-0.06303141
7.350076189421439e-10	-0.88932437	-0.33703735	-0.04657299
7.400048689812381e-10	-0.87898314	-0.34686804	-0.028123237
7.45004759341713e-10	-0.8587271	-0.34587702	-0.008607523
7.500121206159661e-10	-0.8405856	-0.3348353	0.010001226
7.550152546047626e-10	-0.83082724	-0.314898	0.025217146
7.600129232685532e-10	-0.8277808	-0.29100737	0.036727127
7.650017644321574e-10	-0.82761973	-0.2666335	0.044691484
7.70011922477e-10	-0.8348466	-0.24278997	0.048513375
7.750071381947312e-10	-0.85221374	-0.21831112	0.048205543
7.800050863553884e-10	-0.8768317	-0.19242398	0.04455504
7.850065111982993e-10	-0.9026417	-0.16769272	0.04002877
7.900082864149397e-10	-0.9237719	-0.14710352	0.03774799
7.950130211665723e-10	-0.9403262	-0.13042688	0.03862766
8.000095820134024e-10	-0.953586	-0.11551949	0.04155886
8.050145554455092e-10	-0.9629731	-0.099558435	0.045558333
8.100146853949507e-10	-0.96888506	-0.08173837	0.04951679
8.150026760631432e-10	-0.9703974	-0.06260115	0.05203487
8.200025555419845e-10	-0.9672963	-0.042180978	0.051480647
8.250032511619267e-10	-0.96348065	-0.022271205	0.047293343
8.300055364521826e-10	-0.9623231	-0.0050921133	0.040652048
8.350063980385328e-10	-0.96372306	0.008710658	0.03397811
8.400125430083127e-10	-0.9661317	0.019699568	0.029871032
8.450126437266632e-10	-0.967606	0.029528808	0.02968839
8.500019034310062e-10	-0.96828765	0.04040881	0.032455944
8.550036633832881e-10	-0.96951586	0.05342684	0.035814784
8.600159341913322e-10	-0.972197	0.06849305	0.038010966
8.650121812428147e-10	-0.9762584	0.08453945	0.038239952
8.700139369988295e-10	-0.9795635	0.09946367	0.036230166
8.750148378131457e-10	-0.98070127	0.1110251	0.031965308
8.800096477730495e-10	-0.98087436	0.11837761	0.025582986
8.850142956383324e-10	-0.9811957	0.121495746	0.017622927
8.900007804723223e-10	-0.9821474	0.12007765	0.009293566
8.950101800397328e-10	-0.98327196	0.113880455	0.002017377
9.000080527278102e-10	-0.983647	0.10299882	-0.0030712222
9.050107312004479e-10	-0.98318493	0.08809807	-0.0059200907
9.100006478671781e-10	-0.9826122	0.07090045	-0.0071930196
9.150090251316662e-10	-0.98314756	0.052880783	-0.0076523195
9.200042296363662e-10	-0.98507833	0.03476907	-0.0077268286
9.250004693519127e-10	-0.98735774	0.016453456	-0.0077165496
9.300131034891086e-10	-0.9891485	-0.00208961	-0.00788033
9.350118461638827e-10	-0.99034595	-0.020448465	-0.008274092
9.40012652584922e-10	-0.9911511	-0.03808193	-0.008560883
9.450143541273384e-10	-0.9919798	-0.05436443	-0.008199199
9.50007795823634e-10	-0.9928002	-0.068869896	-0.0066627515
9.550133262445847e-10	-0.99318606	-0.08106165	-0.0036860995
9.60015287868243e-10	-0.99280643	-0.09020856	0.00051577407
9.65014613311243e-10	-0.99180007	-0.09597102	0.005459894
9.70013973849276e-10	-0.9907455	-0.09834426	0.010609352
9.750150069101492e-10	-0.9899722	-0.097634204	0.015553153
9.800022247172827e-10	-0.9893958	-0.094226226	0.019940745
9.850082444787367e-10	-0.9890054	-0.08836904	0.02339568
9.900006247618722e-10	-0.98900914	-0.0804414	0.025631534
9.950098043137773e-10	-0.9896819	-0.0707824	0.026773322
1e-09	-0.9910821	-0.059799217	0.027353972
