# t (s)	mx ()	my ()	mz ()
0	1	0	0
5.015045145950981e-12	0.99968153	-0.01269833	-0.0004297651
1.001285547101101e-11	0.9986789	-0.025241122	-0.0014844398
1.5014720676742763e-11	0.99679995	-0.03716621	-0.0031831714
2.0002769514856462e-11	0.9940004	-0.04787636	-0.005491214
2.500030457173237e-11	0.990636	-0.056903508	-0.008330014
3.0004116930462646e-11	0.98753136	-0.06384053	-0.011561229
3.500832166420559e-11	0.98565674	-0.0684427	-0.01503097
4.000840482381765e-11	0.985616	-0.07057805	-0.018609542
4.500867876146906e-11	0.98733866	-0.07014418	-0.022215279
5.000252539365212e-11	0.99016416	-0.067038745	-0.025783975
5.500722479259439e-11	0.9931945	-0.06116531	-0.029258449
6.001416078069802e-11	0.99562806	-0.052526146	-0.032533847
6.500889762482418e-11	0.99704266	-0.04127675	-0.035473824
7.00009864786492e-11	0.99750316	-0.02767057	-0.03794264
7.501442235085692e-11	0.9972068	-0.012003777	-0.039821327
8.001111954522085e-11	0.9963193	0.005166261	-0.040980756
8.500476109469467e-11	0.995067	0.023365676	-0.041330155
9.000504432766798e-11	0.9933419	0.042059924	-0.04079936
9.501336637977561e-11	0.9906206	0.06060759	-0.03935837
1.000132924396891e-10	0.98639554	0.07822462	-0.037038505
1.0500507597619781e-10	0.98093784	0.09426425	-0.03393776
1.1000124627142143e-10	0.97565454	0.108340494	-0.030205293
1.1500341856261077e-10	0.9724804	0.12018627	-0.026007952
1.2001102605370332e-10	0.9726423	0.12949209	-0.021472584
1.250138201422104e-10	0.9759508	0.13579516	-0.016704885
1.3000490549651214e-10	0.9805696	0.13857676	-0.011806306
1.350097241383886e-10	0.98408854	0.13739921	-0.0068828617
1.400140919171155e-10	0.98494524	0.13208374	-0.002121664
1.4500263545461957e-10	0.9834626	0.12287691	0.002304208
1.5000215400662278e-10	0.98180073	0.110309646	0.00623789
1.5500786488745832e-10	0.9824962	0.0951011	0.00960118
1.6001146961462662e-10	0.9860262	0.07765185	0.012494871
1.650072000965823e-10	0.98994476	0.05801063	0.014950835
1.7001030746126304e-10	0.99074906	0.036323536	0.016754324
1.750064782056896e-10	0.98637074	0.013358327	0.017567402
1.8000113177980928e-10	0.9776838	-0.009897784	0.017210389
1.850124633882517e-10	0.96800876	-0.032816347	0.01574582
1.9001575973921548e-10	0.96102136	-0.055147532	0.0133348135
1.950022679415397e-10	0.9587469	-0.07681021	0.0100372685
2.000129114034744e-10	0.9612923	-0.097630054	0.0059347996
2.0500165392867268e-10	0.9664409	-0.11664924	0.0013348775
2.100151602332313e-10	0.9706992	-0.13283415	-0.0035617808
2.1501169368947066e-10	0.9713732	-0.14475776	-0.008477656
2.2000068209280636e-10	0.9684191	-0.15173863	-0.013005218
2.2500874113741352e-10	0.9639455	-0.15407047	-0.016692767
2.3000555639614053e-10	0.96014756	-0.15300024	-0.019224986
2.350148999592936e-10	0.95796794	-0.15055995	-0.020627478
2.4000583642108454e-10	0.9571428	-0.14887592	-0.021308962
2.4500167540498194e-10	0.9563248	-0.1492863	-0.022343474
2.5001115277413356e-10	0.95376277	-0.15134844	-0.025170337
2.550114170602547e-10	0.94731236	-0.15221393	-0.030469386
2.6000634838139845e-10	0.93565726	-0.14825216	-0.03753253
2.6500046844941245e-10	0.921054	-0.13751043	-0.044729505
2.70015698281962e-10	0.91031545	-0.12054111	-0.050666355
2.750022962079301e-10	0.9115119	-0.09968766	-0.05473222
2.800058445783169e-10	0.9261898	-0.076892786	-0.0575689
2.8501148420489e-10	0.9468548	-0.052450486	-0.060667433
2.900110517236312e-10	0.96265006	-0.02505935	-0.06506821
2.950071200992669e-10	0.96686405	0.005671263	-0.070587404
3.000143409443281e-10	0.95859027	0.03801124	-0.07666522
3.05004173538427e-10	0.940347	0.069437884	-0.08353183
3.1001568199549224e-10	0.9155346	0.10116942	-0.091976814
3.150005741963862e-10	0.8874221	0.13815075	-0.10136745
3.2000663774346234e-10	0.8566742	0.18615136	-0.10944096
3.250159216018715e-10	0.8220539	0.2450458	-0.113048084
3.3000700496118096e-10	0.7830298	0.3080594	-0.11016237
3.3501085966737663e-10	0.741564	0.368446	-0.100578144
3.4001337494723807e-10	0.7018638	0.42266786	-0.08546516
3.45004833976587e-10	0.6683739	0.47028545	-0.06749467
3.5000370217856923e-10	0.6431706	0.5133442	-0.049763646
3.550103415793022e-10	0.62603307	0.55412364	-0.03408406
3.600024574815163e-10	0.6191636	0.5936705	-0.019938113
3.6500170464383663e-10	0.62516576	0.6321091	-0.0056580277
3.700027425126415e-10	0.63824046	0.6640176	0.010470489
3.7500217066156576e-10	0.64793193	0.67831737	0.030317053
3.8000244047735424e-10	0.65031403	0.66609895	0.054041777
3.850051743934532e-10	0.64788353	0.62600267	0.07893355
3.900043813800672e-10	0.6431502	0.56384563	0.10207322
3.9500306190319206e-10	0.6366925	0.48745048	0.12260005
4.000041938467308e-10	0.6285123	0.40534255	0.14041904
4.050065367503353e-10	0.6210856	0.32757238	0.15450951
4.1000997282538136e-10	0.6190706	0.25794566	0.16513182
4.1501354576678606e-10	0.627005	0.19042309	0.17252758
4.2000154317613815e-10	0.6505902	0.11609719	0.17757817
4.2500290261490706e-10	0.6891752	0.023646174	0.18183567
4.300104212729354e-10	0.7284183	-0.09296366	0.18355174
4.3501575110162596e-10	0.75310814	-0.22778954	0.1797366
4.4000072412379234e-10	0.75501794	-0.36819306	0.17051443
4.4501530322737263e-10	0.7249672	-0.50310826	0.15782
4.5000705851763233e-10	0.65096354	-0.6141293	0.14237556
4.5501282607321213e-10	0.5353284	-0.6803124	0.12324729
4.6001570174605503e-10	0.40541893	-0.69494104	0.099182315
4.6500375433507037e-10	0.288751	-0.67497647	0.072838224
4.700105804503157e-10	0.19302984	-0.64067495	0.048173334
4.750040735003679e-10	0.11649466	-0.6060565	0.027698563
4.800025589689051e-10	0.059983324	-0.58424306	0.0139976265
4.850081590129599e-10	0.029821377	-0.58379984	0.009623174
4.900088094729455e-10	0.03177192	-0.6023994	0.012450398
4.950035933281819e-10	0.057721402	-0.6317259	0.016328843
5.000147404794908e-10	0.08763719	-0.66626084	0.017713003
5.050009699915202e-10	0.10539776	-0.70539397	0.019675495
5.10012678229009e-10	0.103405006	-0.74964345	0.025268335
5.150105791687827e-10	0.08174454	-0.79473746	0.031937882
5.200007625180686e-10	0.045172013	-0.83373123	0.036371958
5.250065905220951e-10	-0.002850122	-0.8596169	0.037598547
5.300018744243289e-10	-0.057951197	-0.866838	0.036550224
5.350081764445288e-10	-0.11476867	-0.8540101	0.034530293
5.400092213894926e-10	-0.16839899	-0.8279734	0.031324264
5.450067521111133e-10	-0.21885014	-0.7972103	0.026113795
5.500051915173034e-10	-0.26687592	-0.76318586	0.020675696
5.550005153043713e-10	-0.30956265	-0.72708887	0.01903048
5.600151596194356e-10	-0.3429676	-0.69714266	0.022978954
5.650110002134275e-10	-0.36661255	-0.6878885	0.029724699
5.700131410415369e-10	-0.3910442	-0.70812625	0.03745624
5.750030515732362e-10	-0.4285223	-0.7440934	0.047019087
5.800018633458533e-10	-0.47884285	-0.766841	0.059211098
5.850013624361488e-10	-0.53223497	-0.7596781	0.07352262
5.900062570109224e-10	-0.58131605	-0.72469383	0.08776901
5.950064332010904e-10	-0.6248	-0.6708341	0.09775786
6.000025473532145e-10	-0.668911	-0.6089726	0.101898886
6.050042941276673e-10	-0.7172703	-0.5443296	0.10390299
6.100114824621901e-10	-0.76472294	-0.4741891	0.10754082
6.150058706196785e-10	-0.8062062	-0.3975915	0.114331886
6.200003759141096e-10	-0.8385354	-0.3149638	0.12375093
6.250101912085224e-10	-0.8591855	-0.22796252	0.13333873
6.30008497340676e-10	-0.8748726	-0.13898836	0.14107482
6.350115960000971e-10	-0.8912641	-0.05014855	0.14528276
6.400141176458734e-10	-0.9073272	0.033865374	0.1447059
6.450139617772002e-10	-0.921349	0.109592095	0.13867077
6.500003082976447e-10	-0.9307716	0.1740635	0.12696387
6.550087127768275e-10	-0.9341183	0.2267797	0.1114313
6.600040866016746e-10	-0.93131185	0.26950073	0.09440969
6.650079359823681e-10	-0.92489433	0.30286714	0.076769695
6.700146120356963e-10	-0.91865355	0.3254318	0.059240356
6.75011189417871e-10	-0.91155726	0.33614582	0.042806655
6.800141717173963e-10	-0.90069056	0.33521715	0.028898811
6.850030083080349e-10	-0.88942164	0.32581714	0.018559301
6.900096630823906e-10	-0.88401175	0.3121759	0.0113290055
6.950151919101381e-10	-0.88728756	0.29629087	0.0056727366
7.000146355289751e-10	-0.89822316	0.27702022	-0.0007083184
7.050040787308025e-10	-0.91318023	0.2530233	-0.008888996
7.100062534357538e-10	-0.92847574	0.22406879	-0.018381117
7.150085688087591e-10	-0.94328207	0.19093756	-0.02751072
7.200014952448446e-10	-0.95815724	0.15504342	-0.034656823
7.250011504185733e-10	-0.97276497	0.11732221	-0.03908957
7.30006993916672e-10	-0.9846631	0.07862393	-0.040996395
7.350004960928464e-10	-0.99078953	0.040341333	-0.04059999
7.40013842076279e-10	-0.99116683	0.0039933133	-0.03764896
7.450000376977579e-10	-0.9879279	-0.028839188	-0.03220437
7.500005635228723e-10	-0.98300046	-0.057793193	-0.024975259
7.550149749801957e-10	-0.97773314	-0.08226146	-0.01740456
7.600048617728848e-10	-0.97288704	-0.101837605	-0.011141572
7.650023004777634e-10	-0.96936965	-0.11698582	-0.0068296473
7.700012417403307e-10	-0.9681	-0.12843874	-0.003816251
7.750099600758062e-10	-0.9693721	-0.13698532	-0.0010878254
7.800066076556295e-10	-0.97268856	-0.14298101	0.0018996713
7.850068992955023e-10	-0.97672224	-0.14649561	0.0054587526
7.900084317840472e-10	-0.9801685	-0.14744626	0.009734491
7.950060532073373e-10	-0.98276395	-0.14572121	0.014748147
8.000111693126063e-10	-0.9848668	-0.14116473	0.020363003
8.050053263494514e-10	-0.98678577	-0.13380086	0.026013259
8.100089577045409e-10	-0.98858225	-0.12365649	0.03103131
8.150141950339911e-10	-0.9898898	-0.110724464	0.034937564
8.20011043526127e-10	-0.9903781	-0.09532084	0.037558228
8.250130776709838e-10	-0.9901644	-0.07812598	0.038976975
8.30001889814996e-10	-0.9897898	-0.060206536	0.03941287
8.350079922492214e-10	-0.9897831	-0.042363204	0.03913392
8.400150575212438e-10	-0.9902077	-0.025047913	0.038400322
8.450073126073952e-10	-0.99084616	-0.008349699	0.037533212
8.500002060157523e-10	-0.99163234	0.0076337825	0.03676957
8.550093950108288e-10	-0.9925993	0.02259812	0.03608998
8.600032433822169e-10	-0.99368	0.036013745	0.03519001
8.650145855445897e-10	-0.9946801	0.047530726	0.033552185
8.700125742893273e-10	-0.9953341	0.056687962	0.030841773
8.750136050949482e-10	-0.99554926	0.06320322	0.027168643
8.800160329705784e-10	-0.9955291	0.0668188	0.022931159
8.850031710014527e-10	-0.99558634	0.06742531	0.018529342
8.900041547791677e-10	-0.99580497	0.065113224	0.014256882
8.950047441194691e-10	-0.9959767	0.060158215	0.010440614
9.000097434460635e-10	-0.9958628	0.053043947	0.007402289
9.050027017086314e-10	-0.9954751	0.044395592	0.005395535
9.100146578175215e-10	-0.99504185	0.034726284	0.0043962463
9.150129475441597e-10	-0.99482566	0.02459033	0.004091992
9.200130759689709e-10	-0.99492764	0.014329357	0.004070129
9.250131274324888e-10	-0.9952604	0.0041583083	0.0040443907
9.300126688846653e-10	-0.99567413	-0.0058117975	0.003933143
9.350142556275791e-10	-0.9960669	-0.015486666	0.003843993
9.400021107460215e-10	-0.9964184	-0.024669886	0.003940911
9.45008108326367e-10	-0.9967362	-0.03315385	0.0043712645
9.50015802923096e-10	-0.9969886	-0.040606767	0.005284763
9.550088871169445e-10	-0.99712324	-0.046747047	0.0067870826
9.600031494141332e-10	-0.9970996	-0.051383898	0.008871434
9.650140691823728e-10	-0.9969138	-0.05438494	0.011380678
9.700084809028977e-10	-0.996602	-0.055695504	0.013994151
9.750159255400333e-10	-0.99620384	-0.055352632	0.01639597
9.800032216461754e-10	-0.99576825	-0.053467963	0.0183679
9.850050783878454e-10	-0.9953613	-0.050256964	0.019885741
9.90007997972611e-10	-0.99508065	-0.046032112	0.020992862
9.950129593787783e-10	-0.99501824	-0.041108117	0.021764174
1e-09	-0.9952105	-0.035771552	0.022273937
