# t (s)	mx ()	my ()	mz ()
0	1	0	0
5.014768376949285e-12	0.9996614	-0.014135427	-0.0004788773
1.0012127117440461e-11	0.99859285	-0.02814917	-0.0016583533
1.5013544355318698e-11	0.9965954	-0.04152019	-0.0035652362
2.000114129641182e-11	0.9936233	-0.05356871	-0.006165567
2.5014547690134415e-11	0.9900335	-0.06378402	-0.009385993
3.0001513509691414e-11	0.9867223	-0.07160319	-0.013038353
3.500537487038423e-11	0.98467624	-0.07682512	-0.016983481
4.000502776900129e-11	0.9845573	-0.07925675	-0.021063723
4.5004828467527835e-11	0.9863112	-0.0787651	-0.02518807
5.001433302907219e-11	0.98926723	-0.07519455	-0.02929851
5.5002495720148744e-11	0.9924467	-0.0684572	-0.033291355
6.000900997278076e-11	0.9950212	-0.058477588	-0.037084542
6.500319255854221e-11	0.9965142	-0.045426447	-0.0405046
7.00108750759465e-11	0.9969811	-0.029521044	-0.043398604
7.500780842896066e-11	0.9966201	-0.011253039	-0.045599066
8.000405571120394e-11	0.9955949	0.008907868	-0.04697341
8.501320512986982e-11	0.9941297	0.030434288	-0.047398783
9.001304702229951e-11	0.99208504	0.052566413	-0.04678085
9.5004862503787e-11	0.98884034	0.07453699	-0.0450844
1.0000425923894244e-10	0.9837543	0.09553318	-0.042327352
1.0501159866268788e-10	0.97708374	0.114746734	-0.03861475
1.1000733984908484e-10	0.9704849	0.1316029	-0.034154993
1.1500892220478134e-10	0.96621305	0.14589314	-0.029143225
1.2001590448076045e-10	0.96577936	0.1572908	-0.023725595
1.2500209361997122e-10	0.9690774	0.1652228	-0.01803049
1.3000867292615283e-10	0.97410625	0.16905393	-0.012105191
1.3501295492737053e-10	0.97798973	0.16807653	-0.00612781
1.400005883377905e-10	0.9788039	0.16200814	-0.0003413382
1.450046377616585e-10	0.9768031	0.15102662	0.0050699227
1.5000391716732138e-10	0.97454935	0.13593401	0.00982205
1.5500942516189425e-10	0.97525936	0.11772848	0.013827464
1.6001221628520318e-10	0.9797863	0.096962474	0.017270535
1.6500776430370035e-10	0.9852818	0.073563054	0.020278582
1.7001025500887065e-10	0.9872737	0.04752296	0.022627614
1.7500540636501777e-10	0.9827872	0.019680718	0.023870267
1.8001541303711968e-10	0.9724154	-0.008804793	0.023728337
1.8501003606355349e-10	0.9601795	-0.036855195	0.022284556
1.900135610203294e-10	0.95060563	-0.06461587	0.019741626
1.9501579277909272e-10	0.9465367	-0.09223593	0.016101284
2.000104244473321e-10	0.9484988	-0.11941473	0.011423297
2.050145389113593e-10	0.9539561	-0.14528738	0.005996069
2.1001206821478713e-10	0.9582862	-0.16798094	0.000111836474
2.1500841341623542e-10	0.95775884	-0.18541984	-0.0059515643
2.2001326163989745e-10	0.9520179	-0.19627082	-0.011573867
2.2500450166839583e-10	0.94392073	-0.20070031	-0.015933657
2.3000140242929948e-10	0.93644017	-0.20040795	-0.018498737
2.3501140165507103e-10	0.9307741	-0.19824357	-0.019133778
2.400020511654418e-10	0.92666507	-0.19758223	-0.01828021
2.4501280649182246e-10	0.9229279	-0.20130605	-0.017395478
2.5000510600324265e-10	0.91836834	-0.21013352	-0.01873087
2.550039795651565e-10	0.9109806	-0.22089995	-0.023950629
2.600143311808975e-10	0.8983321	-0.2274977	-0.032921795
2.6500768399578973e-10	0.8810322	-0.22480936	-0.043576874
2.700063133774841e-10	0.8652268	-0.21206835	-0.053513084
2.7500889073008557e-10	0.86137885	-0.19268875	-0.06111732
2.800129616817713e-10	0.8751714	-0.17120191	-0.06649543
2.8500316448666017e-10	0.9013699	-0.1488616	-0.07177972
2.9000766269101383e-10	0.9282641	-0.12221422	-0.079270676
2.950085052352879e-10	0.9453494	-0.088084996	-0.089147076
3.000149101170043e-10	0.9475821	-0.047035214	-0.09982561
3.0500128279018396e-10	0.9339419	-0.0037629388	-0.11007892
3.1000947571280437e-10	0.90632534	0.038257364	-0.12053751
3.1500877307688387e-10	0.8691587	0.08066541	-0.13153754
3.2001499084047176e-10	0.8258551	0.13032517	-0.14162238
3.250106226099381e-10	0.77729076	0.19154325	-0.14764513
3.3000797211253097e-10	0.723913	0.2609073	-0.14681597
3.3500048771040883e-10	0.66933566	0.33068573	-0.13858114
3.4000082693755987e-10	0.61908585	0.39771765	-0.124340236
3.450102854057895e-10	0.57713836	0.46219885	-0.10671141
3.5000767276175436e-10	0.54284656	0.5244565	-0.08888391
3.5500673239522017e-10	0.50940007	0.5841611	-0.07294552
3.60000007585457e-10	0.4731132	0.63872975	-0.058889225
3.6501252493837855e-10	0.44418854	0.6907919	-0.045504108
3.7001018956650914e-10	0.43169984	0.7454126	-0.03284693
3.750111473611215e-10	0.42359024	0.79335505	-0.019824563
3.800030994975994e-10	0.40791887	0.8170807	-0.0032527337
3.850130095745179e-10	0.38720998	0.8089338	0.016720818
3.900126760635783e-10	0.36960647	0.7737179	0.036304314
3.950143537092938e-10	0.35840654	0.7215119	0.053400986
4.000142591710024e-10	0.3511897	0.65883595	0.07002204
4.0500802448788847e-10	0.3436137	0.59276634	0.08783498
4.100118926602059e-10	0.3362289	0.536272	0.10450077
4.150004444450031e-10	0.33335197	0.4950805	0.117083825
4.200107019069056e-10	0.3378132	0.463932	0.12547474
4.250158841391655e-10	0.35268062	0.44283083	0.13045144
4.300139809882899e-10	0.38227215	0.43308988	0.13276553
4.350088933891106e-10	0.43015715	0.42463994	0.13801225
4.400074329988998e-10	0.50502807	0.40074828	0.15042414
4.450082527597632e-10	0.6030137	0.3473578	0.16563693
4.5000548482866637e-10	0.7015375	0.26245373	0.1761848
4.550141395794158e-10	0.7764738	0.15117666	0.1795919
4.6000447909030297e-10	0.8075091	0.019846482	0.17888317
4.65005338159103e-10	0.782092	-0.1278182	0.17450015
4.700042080032046e-10	0.6943813	-0.26981464	0.16477661
4.750105112777227e-10	0.55436754	-0.37274152	0.14978388
4.800105191314064e-10	0.39810252	-0.41209215	0.1321055
4.850095540676539e-10	0.26875642	-0.3972104	0.112721644
4.900038429868068e-10	0.17392269	-0.36248308	0.09037834
4.95015386694007e-10	0.11452309	-0.34381777	0.06835784
5.000055535192459e-10	0.107531704	-0.35600522	0.050933246
5.050059382536874e-10	0.13257957	-0.39545503	0.03752933
5.100073794694521e-10	0.16124396	-0.45360106	0.026477776
5.150063823533827e-10	0.19127846	-0.5157919	0.017495101
5.200041797014888e-10	0.22017291	-0.5758948	0.013033366
5.250103947737377e-10	0.23132052	-0.6335015	0.013792838
5.3000625778391e-10	0.21066464	-0.6806245	0.01645365
5.350076338967096e-10	0.1710911	-0.72480226	0.020690253
5.400010002315584e-10	0.13039285	-0.77184033	0.026297666
5.450149634052545e-10	0.07348494	-0.807784	0.034903824
5.500044992585578e-10	0.002604035	-0.8175586	0.040096004
5.550012213696396e-10	-0.06564018	-0.8097241	0.044471614
5.600021687714945e-10	-0.13116978	-0.80149895	0.047072545
5.650025182854307e-10	-0.19350362	-0.7813489	0.044999238
5.700016092229697e-10	-0.25411323	-0.74163574	0.04495649
5.750153434150132e-10	-0.31308967	-0.7049528	0.04897355
5.800120530206542e-10	-0.3708738	-0.6809743	0.054800108
5.850062138897075e-10	-0.4212263	-0.6626391	0.05688551
5.900081498649379e-10	-0.462854	-0.65758765	0.0553877
5.950121013160893e-10	-0.5090522	-0.6625275	0.05690546
6.000005772435635e-10	-0.5640736	-0.66160053	0.064901225
6.050059551456412e-10	-0.6164351	-0.64088506	0.08007166
6.100129131272453e-10	-0.66542846	-0.6060026	0.09808791
6.15009233327076e-10	-0.71610516	-0.55945164	0.113599636
6.200071548769856e-10	-0.7609849	-0.49458227	0.12248275
6.250153059485345e-10	-0.8015616	-0.41703328	0.12573697
6.300046321380438e-10	-0.84170485	-0.33388725	0.12673134
6.350046435783597e-10	-0.8796752	-0.24953471	0.12777631
6.400039609790045e-10	-0.9050081	-0.1625934	0.1300192
6.45011026779913e-10	-0.91233593	-0.073861025	0.13001531
6.500000288020648e-10	-0.9088896	0.010095909	0.1291531
6.550132963682707e-10	-0.90100676	0.086011045	0.12823708
6.600017027990689e-10	-0.8934775	0.15249828	0.12388556
6.650134709523901e-10	-0.893233	0.21167591	0.11365638
6.700104614475931e-10	-0.89771456	0.25869757	0.0984413
6.750018427417898e-10	-0.9028145	0.2914371	0.07953978
6.800124198817663e-10	-0.908188	0.31189552	0.060282595
6.850042105833313e-10	-0.91564757	0.32044107	0.042196725
6.900025455105145e-10	-0.9231359	0.31719914	0.024905626
6.950096774734643e-10	-0.9297427	0.30289736	0.010111309
7.000020391311882e-10	-0.934584	0.27917215	3.971165e-05
7.050141357142084e-10	-0.93612516	0.24980499	-0.0064273793
7.100155774867745e-10	-0.9358732	0.21917397	-0.009966579
7.150018756218081e-10	-0.93851036	0.18856911	-0.011376098
7.200099450216906e-10	-0.94479865	0.15733905	-0.01215841
7.250075722403869e-10	-0.95081383	0.12669985	-0.013944217
7.300079094931302e-10	-0.9538025	0.09785309	-0.01713208
7.350133929083214e-10	-0.95633054	0.07054214	-0.021106113
7.400051862374276e-10	-0.9605457	0.043447405	-0.024175478
7.450160025409567e-10	-0.9674445	0.01531056	-0.024962604
7.50015631412962e-10	-0.97595406	-0.013495059	-0.024338167
7.55001983339658e-10	-0.9828952	-0.040930063	-0.02273733
7.600147610616282e-10	-0.98629206	-0.06510575	-0.019210055
7.650136277964389e-10	-0.9864316	-0.08477859	-0.013995975
7.700032917610412e-10	-0.98495424	-0.099536814	-0.007582795
7.750002935034311e-10	-0.98237514	-0.10955382	-0.00042737296
7.800037416237914e-10	-0.9792778	-0.11504626	0.0060190805
7.850076319979612e-10	-0.97676116	-0.116824135	0.010919249
7.900051530624337e-10	-0.97518015	-0.116273604	0.014401039
7.950092584289192e-10	-0.9748936	-0.11399187	0.01644386
8.000031818233434e-10	-0.97630423	-0.11008588	0.017569229
8.050004927101408e-10	-0.9791005	-0.10494041	0.018657433
8.100004217392407e-10	-0.9819788	-0.0991065	0.019989649
8.150029427471186e-10	-0.9843773	-0.09266652	0.021892585
8.200065332609447e-10	-0.9865467	-0.08558433	0.024720563
8.250048853394142e-10	-0.9885758	-0.07811027	0.027932825
8.30005645453564e-10	-0.99058515	-0.07006233	0.030720852
8.350023844543766e-10	-0.9923495	-0.06131476	0.032572094
8.400036772090544e-10	-0.9933979	-0.052018624	0.033170443
8.450099346038801e-10	-0.9935626	-0.042417485	0.032751087
8.500065880491333e-10	-0.99321645	-0.0330233	0.03203109
8.550102037278047e-10	-0.99295145	-0.024043359	0.031271867
8.600033424101276e-10	-0.9929023	-0.015330062	0.0305166
8.650145393717082e-10	-0.9929272	-0.0065965047	0.030014206
8.700063214171491e-10	-0.9931473	0.0022598596	0.029895259
8.750156147875766e-10	-0.9935935	0.011236304	0.030123735
8.80012547524747e-10	-0.9941668	0.019798717	0.030322863
8.850144424647411e-10	-0.99480623	0.027414704	0.029769821
8.900021112534247e-10	-0.9953845	0.03373215	0.028117625
8.950124822334294e-10	-0.9957331	0.038487617	0.025542209
9.00010563518664e-10	-0.99587584	0.041256763	0.022338996
9.050141448566497e-10	-0.99595666	0.041897323	0.018854052
9.100066916534436e-10	-0.99606705	0.040392455	0.015597288
9.150029784366879e-10	-0.9961889	0.036815807	0.01286834
9.200012673151354e-10	-0.9962563	0.03141102	0.010792418
9.250079411608268e-10	-0.9962412	0.024535816	0.009441544
9.30000909513554e-10	-0.9961544	0.016774984	0.008699881
9.350123151654176e-10	-0.99609953	0.008696955	0.00834142
