# t (s)	mx ()	my ()	mz ()
0	0.9684543	3.507921e-09	-1.398978e-10
1.0162915744958676e-12	0.96845424	3.9244696e-09	-1.558269e-10
2.0045311366138198e-12	0.9684541	3.70801e-09	-1.3644474e-10
3.016285823618758e-12	0.96845394	3.6716301e-09	4.030609e-12
4.023838337108377e-12	0.96845365	3.6270649e-09	1.3719714e-10
5.006253996032439e-12	0.96845335	3.445166e-09	1.7550139e-10
6.024901970418563e-12	0.96845293	3.8908183e-09	1.8149382e-10
7.005445196540182e-12	0.96845245	3.2969183e-09	1.3466406e-10
8.002697584515036e-12	0.9684519	3.7289283e-09	2.658218e-10
9.02568834020903e-12	0.9684512	3.8198777e-09	3.012809e-10
