//output directory: precession3.out/
sizex := 100e-9
sizey := 100e-9
sizez := 10e-9
nx := 128
ny := 128
nz := 2
SetGridsize(nx, ny, nz)
SetCellsize(sizex/nx, sizey/ny, sizez/nz)
Msat = 800e3
Aex = 13e-12
alpha = 0.02
m = uniform(1, 0, .01)
relax()
save(m)
B_ext = vector(-24.6E-3, 4.3E-3, 0)
autosave(m, 1e-12)
tableautosave(1e-12)
run(1e-9)
